ITEM: TIMESTEP
0
ITEM: NUMBER OF ATOMS
512
ITEM: BOX BOUNDS xy xz yz pp pp pp
0.0000000000000000e+00 4.6146935159999998e+01 1.1536733860000000e+01
0.0000000000000000e+00 2.6642945210000001e+01 1.1536733860000000e+01
0.0000000000000000e+00 1.8839407219999998e+01 6.6607362999999999e+00
ITEM: ATOMS id type xs ys zs
1 1 0 0 0
2 1 0.125 0 0
3 1 0.25 0 0
4 1 0.375 0 0
5 1 0.5 0 0
6 1 0.625 0 0
7 1 0.75 0 0
8 1 0.875 0 0
9 1 1 0.125 0
10 1 0.125 0.125 0
11 1 0.25 0.125 0
12 1 0.375 0.125 0
13 1 0.5 0.125 0
14 1 0.625 0.125 0
15 1 0.75 0.125 0
16 1 0.875 0.125 0
17 1 1 0.25 0
18 1 0.125 0.25 0
19 1 0.25 0.25 0
20 1 0.375 0.25 0
21 1 0.5 0.25 0
22 1 0.625 0.25 0
23 1 0.75 0.25 0
24 1 0.875 0.25 0
25 1 1 0.375 0
26 1 0.125 0.375 0
27 1 0.25 0.375 0
28 1 0.375 0.375 0
29 1 0.5 0.375 0
30 1 0.625 0.375 0
31 1 0.75 0.375 0
32 1 0.875 0.375 0
33 1 1 0.5 0
34 1 0.125 0.5 0
35 1 0.25 0.5 0
36 1 0.375 0.5 0
37 1 0.5 0.5 0
38 1 0.625 0.5 0
39 1 0.75 0.5 0
40 1 0.875 0.5 0
41 1 1 0.625 0
42 1 0.125 0.625 0
43 1 0.25 0.625 0
44 1 0.375 0.625 0
45 1 0.5 0.625 0
46 1 0.625 0.625 0
47 1 0.75 0.625 0
48 1 0.875 0.625 0
49 1 1 0.75 0
50 1 0.125 0.75 0
51 1 0.25 0.75 0
52 1 0.375 0.75 0
53 1 0.5 0.75 0
54 1 0.625 0.75 0
55 1 0.75 0.75 0
56 1 0.875 0.75 0
57 1 1 0.875 0
58 1 0.125 0.875 0
59 1 0.25 0.875 0
60 1 0.375 0.875 0
61 1 0.5 0.875 0
62 1 0.625 0.875 0
63 1 0.75 0.875 0
64 1 0.875 0.875 0
65 1 1 5.64696e-10 0.125
66 1 0.125 5.64696e-10 0.125
67 1 0.25 5.64696e-10 0.125
68 1 0.375 5.64696e-10 0.125
69 1 0.5 5.64696e-10 0.125
70 1 0.625 5.64696e-10 0.125
71 1 0.75 5.64696e-10 0.125
72 1 0.875 5.64696e-10 0.125
73 1 1 0.125 0.125
74 1 0.125 0.125 0.125
75 1 0.25 0.125 0.125
76 1 0.375 0.125 0.125
77 1 0.5 0.125 0.125
78 1 0.625 0.125 0.125
79 1 0.75 0.125 0.125
80 1 0.875 0.125 0.125
81 1 1 0.25 0.125
82 1 0.125 0.25 0.125
83 1 0.25 0.25 0.125
84 1 0.375 0.25 0.125
85 1 0.5 0.25 0.125
86 1 0.625 0.25 0.125
87 1 0.75 0.25 0.125
88 1 0.875 0.25 0.125
89 1 1 0.375 0.125
90 1 0.125 0.375 0.125
91 1 0.25 0.375 0.125
92 1 0.375 0.375 0.125
93 1 0.5 0.375 0.125
94 1 0.625 0.375 0.125
95 1 0.75 0.375 0.125
96 1 0.875 0.375 0.125
97 1 1 0.5 0.125
98 1 0.125 0.5 0.125
99 1 0.25 0.5 0.125
100 1 0.375 0.5 0.125
101 1 0.5 0.5 0.125
102 1 0.625 0.5 0.125
103 1 0.75 0.5 0.125
104 1 0.875 0.5 0.125
105 1 1 0.625 0.125
106 1 0.125 0.625 0.125
107 1 0.25 0.625 0.125
108 1 0.375 0.625 0.125
109 1 0.5 0.625 0.125
110 1 0.625 0.625 0.125
111 1 0.75 0.625 0.125
112 1 0.875 0.625 0.125
113 1 1 0.75 0.125
114 1 0.125 0.75 0.125
115 1 0.25 0.75 0.125
116 1 0.375 0.75 0.125
117 1 0.5 0.75 0.125
118 1 0.625 0.75 0.125
119 1 0.75 0.75 0.125
120 1 0.875 0.75 0.125
121 1 1 0.875 0.125
122 1 0.125 0.875 0.125
123 1 0.25 0.875 0.125
124 1 0.375 0.875 0.125
125 1 0.5 0.875 0.125
126 1 0.625 0.875 0.125
127 1 0.75 0.875 0.125
128 1 0.875 0.875 0.125
129 1 1 4.47009e-10 0.25
130 1 0.125 4.47009e-10 0.25
131 1 0.25 4.47009e-10 0.25
132 1 0.375 4.47009e-10 0.25
133 1 0.5 4.47009e-10 0.25
134 1 0.625 4.47009e-10 0.25
135 1 0.75 4.47009e-10 0.25
136 1 0.875 4.47009e-10 0.25
137 1 1 0.125 0.25
138 1 0.125 0.125 0.25
139 1 0.25 0.125 0.25
140 1 0.375 0.125 0.25
141 1 0.5 0.125 0.25
142 1 0.625 0.125 0.25
143 1 0.75 0.125 0.25
144 1 0.875 0.125 0.25
145 1 1 0.25 0.25
146 1 0.125 0.25 0.25
147 1 0.25 0.25 0.25
148 1 0.375 0.25 0.25
149 1 0.5 0.25 0.25
150 1 0.625 0.25 0.25
151 1 0.75 0.25 0.25
152 1 0.875 0.25 0.25
153 1 1 0.375 0.25
154 1 0.125 0.375 0.25
155 1 0.25 0.375 0.25
156 1 0.375 0.375 0.25
157 1 0.5 0.375 0.25
158 1 0.625 0.375 0.25
159 1 0.75 0.375 0.25
160 1 0.875 0.375 0.25
161 1 1 0.5 0.25
162 1 0.125 0.5 0.25
163 1 0.25 0.5 0.25
164 1 0.375 0.5 0.25
165 1 0.5 0.5 0.25
166 1 0.625 0.5 0.25
167 1 0.75 0.5 0.25
168 1 0.875 0.5 0.25
169 1 1 0.625 0.25
170 1 0.125 0.625 0.25
171 1 0.25 0.625 0.25
172 1 0.375 0.625 0.25
173 1 0.5 0.625 0.25
174 1 0.625 0.625 0.25
175 1 0.75 0.625 0.25
176 1 0.875 0.625 0.25
177 1 1 0.75 0.25
178 1 0.125 0.75 0.25
179 1 0.25 0.75 0.25
180 1 0.375 0.75 0.25
181 1 0.5 0.75 0.25
182 1 0.625 0.75 0.25
183 1 0.75 0.75 0.25
184 1 0.875 0.75 0.25
185 1 1 0.875 0.25
186 1 0.125 0.875 0.25
187 1 0.25 0.875 0.25
188 1 0.375 0.875 0.25
189 1 0.5 0.875 0.25
190 1 0.625 0.875 0.25
191 1 0.75 0.875 0.25
192 1 0.875 0.875 0.25
193 1 1 5.11261e-10 0.375
194 1 0.125 5.11261e-10 0.375
195 1 0.25 5.11261e-10 0.375
196 1 0.375 5.11261e-10 0.375
197 1 0.5 5.11261e-10 0.375
198 1 0.625 5.11261e-10 0.375
199 1 0.75 5.11261e-10 0.375
200 1 0.875 5.11261e-10 0.375
201 1 1 0.125 0.375
202 1 0.125 0.125 0.375
203 1 0.25 0.125 0.375
204 1 0.375 0.125 0.375
205 1 0.5 0.125 0.375
206 1 0.625 0.125 0.375
207 1 0.75 0.125 0.375
208 1 0.875 0.125 0.375
209 1 1 0.25 0.375
210 1 0.125 0.25 0.375
211 1 0.25 0.25 0.375
212 1 0.375 0.25 0.375
213 1 0.5 0.25 0.375
214 1 0.625 0.25 0.375
215 1 0.75 0.25 0.375
216 1 0.875 0.25 0.375
217 1 1 0.375 0.375
218 1 0.125 0.375 0.375
219 1 0.25 0.375 0.375
220 1 0.375 0.375 0.375
221 1 0.5 0.375 0.375
222 1 0.625 0.375 0.375
223 1 0.75 0.375 0.375
224 1 0.875 0.375 0.375
225 1 1 0.5 0.375
226 1 0.125 0.5 0.375
227 1 0.25 0.5 0.375
228 1 0.375 0.5 0.375
229 1 0.5 0.5 0.375
230 1 0.625 0.5 0.375
231 1 0.75 0.5 0.375
232 1 0.875 0.5 0.375
233 1 1 0.625 0.375
234 1 0.125 0.625 0.375
235 1 0.25 0.625 0.375
236 1 0.375 0.625 0.375
237 1 0.5 0.625 0.375
238 1 0.625 0.625 0.375
239 1 0.75 0.625 0.375
240 1 0.875 0.625 0.375
241 1 1 0.75 0.375
242 1 0.125 0.75 0.375
243 1 0.25 0.75 0.375
244 1 0.375 0.75 0.375
245 1 0.5 0.75 0.375
246 1 0.625 0.75 0.375
247 1 0.75 0.75 0.375
248 1 0.875 0.75 0.375
249 1 1 0.875 0.375
250 1 0.125 0.875 0.375
251 1 0.25 0.875 0.375
252 1 0.375 0.875 0.375
253 1 0.5 0.875 0.375
254 1 0.625 0.875 0.375
255 1 0.75 0.875 0.375
256 1 0.875 0.875 0.375
257 1 1 7.00624e-11 0.5
258 1 0.125 7.00624e-11 0.5
259 1 0.25 7.00624e-11 0.5
260 1 0.375 7.00624e-11 0.5
261 1 0.5 7.00624e-11 0.5
262 1 0.625 7.00624e-11 0.5
263 1 0.75 7.00624e-11 0.5
264 1 0.875 7.00624e-11 0.5
265 1 1 0.125 0.5
266 1 0.125 0.125 0.5
267 1 0.25 0.125 0.5
268 1 0.375 0.125 0.5
269 1 0.5 0.125 0.5
270 1 0.625 0.125 0.5
271 1 0.75 0.125 0.5
272 1 0.875 0.125 0.5
273 1 1 0.25 0.5
274 1 0.125 0.25 0.5
275 1 0.25 0.25 0.5
276 1 0.375 0.25 0.5
277 1 0.5 0.25 0.5
278 1 0.625 0.25 0.5
279 1 0.75 0.25 0.5
280 1 0.875 0.25 0.5
281 1 1 0.375 0.5
282 1 0.125 0.375 0.5
283 1 0.25 0.375 0.5
284 1 0.375 0.375 0.5
285 1 0.5 0.375 0.5
286 1 0.625 0.375 0.5
287 1 0.75 0.375 0.5
288 1 0.875 0.375 0.5
289 1 1 0.5 0.5
290 1 0.125 0.5 0.5
291 1 0.25 0.5 0.5
292 1 0.375 0.5 0.5
293 1 0.5 0.5 0.5
294 1 0.625 0.5 0.5
295 1 0.75 0.5 0.5
296 1 0.875 0.5 0.5
297 1 1 0.625 0.5
298 1 0.125 0.625 0.5
299 1 0.25 0.625 0.5
300 1 0.375 0.625 0.5
301 1 0.5 0.625 0.5
302 1 0.625 0.625 0.5
303 1 0.75 0.625 0.5
304 1 0.875 0.625 0.5
305 1 1 0.75 0.5
306 1 0.125 0.75 0.5
307 1 0.25 0.75 0.5
308 1 0.375 0.75 0.5
309 1 0.5 0.75 0.5
310 1 0.625 0.75 0.5
311 1 0.75 0.75 0.5
312 1 0.875 0.75 0.5
313 1 1 0.875 0.5
314 1 0.125 0.875 0.5
315 1 0.25 0.875 0.5
316 1 0.375 0.875 0.5
317 1 0.5 0.875 0.5
318 1 0.625 0.875 0.5
319 1 0.75 0.875 0.5
320 1 0.875 0.875 0.5
321 1 1 7.81336e-10 0.625
322 1 0.125 7.81336e-10 0.625
323 1 0.25 7.81336e-10 0.625
324 1 0.375 7.81336e-10 0.625
325 1 0.5 7.81336e-10 0.625
326 1 0.625 7.81336e-10 0.625
327 1 0.75 7.81336e-10 0.625
328 1 0.875 7.81336e-10 0.625
329 1 1 0.125 0.625
330 1 0.125 0.125 0.625
331 1 0.25 0.125 0.625
332 1 0.375 0.125 0.625
333 1 0.5 0.125 0.625
334 1 0.625 0.125 0.625
335 1 0.75 0.125 0.625
336 1 0.875 0.125 0.625
337 1 1 0.25 0.625
338 1 0.125 0.25 0.625
339 1 0.25 0.25 0.625
340 1 0.375 0.25 0.625
341 1 0.5 0.25 0.625
342 1 0.625 0.25 0.625
343 1 0.75 0.25 0.625
344 1 0.875 0.25 0.625
345 1 1 0.375 0.625
346 1 0.125 0.375 0.625
347 1 0.25 0.375 0.625
348 1 0.375 0.375 0.625
349 1 0.5 0.375 0.625
350 1 0.625 0.375 0.625
351 1 0.75 0.375 0.625
352 1 0.875 0.375 0.625
353 1 1 0.5 0.625
354 1 0.125 0.5 0.625
355 1 0.25 0.5 0.625
356 1 0.375 0.5 0.625
357 1 0.5 0.5 0.625
358 1 0.625 0.5 0.625
359 1 0.75 0.5 0.625
360 1 0.875 0.5 0.625
361 1 1 0.625 0.625
362 1 0.125 0.625 0.625
363 1 0.25 0.625 0.625
364 1 0.375 0.625 0.625
365 1 0.5 0.625 0.625
366 1 0.625 0.625 0.625
367 1 0.75 0.625 0.625
368 1 0.875 0.625 0.625
369 1 1 0.75 0.625
370 1 0.125 0.75 0.625
371 1 0.25 0.75 0.625
372 1 0.375 0.75 0.625
373 1 0.5 0.75 0.625
374 1 0.625 0.75 0.625
375 1 0.75 0.75 0.625
376 1 0.875 0.75 0.625
377 1 1 0.875 0.625
378 1 0.125 0.875 0.625
379 1 0.25 0.875 0.625
380 1 0.375 0.875 0.625
381 1 0.5 0.875 0.625
382 1 0.625 0.875 0.625
383 1 0.75 0.875 0.625
384 1 0.875 0.875 0.625
385 1 1 3.40138e-10 0.75
386 1 0.125 3.40138e-10 0.75
387 1 0.25 3.40138e-10 0.75
388 1 0.375 3.40138e-10 0.75
389 1 0.5 3.40138e-10 0.75
390 1 0.625 3.40138e-10 0.75
391 1 0.75 3.40138e-10 0.75
392 1 0.875 3.40138e-10 0.75
393 1 1 0.125 0.75
394 1 0.125 0.125 0.75
395 1 0.25 0.125 0.75
396 1 0.375 0.125 0.75
397 1 0.5 0.125 0.75
398 1 0.625 0.125 0.75
399 1 0.75 0.125 0.75
400 1 0.875 0.125 0.75
401 1 1 0.25 0.75
402 1 0.125 0.25 0.75
403 1 0.25 0.25 0.75
404 1 0.375 0.25 0.75
405 1 0.5 0.25 0.75
406 1 0.625 0.25 0.75
407 1 0.75 0.25 0.75
408 1 0.875 0.25 0.75
409 1 1 0.375 0.75
410 1 0.125 0.375 0.75
411 1 0.25 0.375 0.75
412 1 0.375 0.375 0.75
413 1 0.5 0.375 0.75
414 1 0.625 0.375 0.75
415 1 0.75 0.375 0.75
416 1 0.875 0.375 0.75
417 1 1 0.5 0.75
418 1 0.125 0.5 0.75
419 1 0.25 0.5 0.75
420 1 0.375 0.5 0.75
421 1 0.5 0.5 0.75
422 1 0.625 0.5 0.75
423 1 0.75 0.5 0.75
424 1 0.875 0.5 0.75
425 1 1 0.625 0.75
426 1 0.125 0.625 0.75
427 1 0.25 0.625 0.75
428 1 0.375 0.625 0.75
429 1 0.5 0.625 0.75
430 1 0.625 0.625 0.75
431 1 0.75 0.625 0.75
432 1 0.875 0.625 0.75
433 1 1 0.75 0.75
434 1 0.125 0.75 0.75
435 1 0.25 0.75 0.75
436 1 0.375 0.75 0.75
437 1 0.5 0.75 0.75
438 1 0.625 0.75 0.75
439 1 0.75 0.75 0.75
440 1 0.875 0.75 0.75
441 1 1 0.875 0.75
442 1 0.125 0.875 0.75
443 1 0.25 0.875 0.75
444 1 0.375 0.875 0.75
445 1 0.5 0.875 0.75
446 1 0.625 0.875 0.75
447 1 0.75 0.875 0.75
448 1 0.875 0.875 0.75
449 1 1 4.04389e-10 0.875
450 1 0.125 4.04389e-10 0.875
451 1 0.25 4.04389e-10 0.875
452 1 0.375 4.04389e-10 0.875
453 1 0.5 4.04389e-10 0.875
454 1 0.625 4.04389e-10 0.875
455 1 0.75 4.04389e-10 0.875
456 1 0.875 4.04389e-10 0.875
457 1 1 0.125 0.875
458 1 0.125 0.125 0.875
459 1 0.25 0.125 0.875
460 1 0.375 0.125 0.875
461 1 0.5 0.125 0.875
462 1 0.625 0.125 0.875
463 1 0.75 0.125 0.875
464 1 0.875 0.125 0.875
465 1 1 0.25 0.875
466 1 0.125 0.25 0.875
467 1 0.25 0.25 0.875
468 1 0.375 0.25 0.875
469 1 0.5 0.25 0.875
470 1 0.625 0.25 0.875
471 1 0.75 0.25 0.875
472 1 0.875 0.25 0.875
473 1 1 0.375 0.875
474 1 0.125 0.375 0.875
475 1 0.25 0.375 0.875
476 1 0.375 0.375 0.875
477 1 0.5 0.375 0.875
478 1 0.625 0.375 0.875
479 1 0.75 0.375 0.875
480 1 0.875 0.375 0.875
481 1 1 0.5 0.875
482 1 0.125 0.5 0.875
483 1 0.25 0.5 0.875
484 1 0.375 0.5 0.875
485 1 0.5 0.5 0.875
486 1 0.625 0.5 0.875
487 1 0.75 0.5 0.875
488 1 0.875 0.5 0.875
489 1 1 0.625 0.875
490 1 0.125 0.625 0.875
491 1 0.25 0.625 0.875
492 1 0.375 0.625 0.875
493 1 0.5 0.625 0.875
494 1 0.625 0.625 0.875
495 1 0.75 0.625 0.875
496 1 0.875 0.625 0.875
497 1 1 0.75 0.875
498 1 0.125 0.75 0.875
499 1 0.25 0.75 0.875
500 1 0.375 0.75 0.875
501 1 0.5 0.75 0.875
502 1 0.625 0.75 0.875
503 1 0.75 0.75 0.875
504 1 0.875 0.75 0.875
505 1 1 0.875 0.875
506 1 0.125 0.875 0.875
507 1 0.25 0.875 0.875
508 1 0.375 0.875 0.875
509 1 0.5 0.875 0.875
510 1 0.625 0.875 0.875
511 1 0.75 0.875 0.875
512 1 0.875 0.875 0.875
ITEM: TIMESTEP
50000
ITEM: NUMBER OF ATOMS
512
ITEM: BOX BOUNDS xy xz yz pp pp pp
-7.6272412310213866e-02 4.6375752398783071e+01 1.1613006273235962e+01
-6.6053846515064407e-02 2.6753034954170381e+01 1.1613006273235962e+01
-6.2276163688700592e-02 1.8901683383689466e+01 6.7047721976547976e+00
ITEM: ATOMS id type xs ys zs
1 1 -0.00190549 -0.00318726 0.00458131
2 1 0.126279 0.00165404 0.00266559
3 1 0.248294 0.0103655 -0.00748156
4 1 0.380163 0.00337515 -0.00296342
5 1 0.504423 -0.00464294 0.00143827
6 1 0.633537 -0.00162717 -0.00463599
7 1 0.753868 -0.000753265 -0.000262628
8 1 0.877604 -0.00584241 0.00183101
9 1 1.00004 0.130736 -0.006062
10 1 0.123582 0.122955 -0.00157972
11 1 0.257247 0.123838 0.000451063
12 1 0.380262 0.126776 -0.00372724
13 1 0.502408 0.124024 -0.00241207
14 1 0.626832 0.122569 0.00425527
15 1 0.747865 0.120581 -0.0027282
16 1 0.87577 0.120988 0.00551308
17 1 1.00278 0.25132 -0.0100434
18 1 0.130465 0.248344 -0.00570793
19 1 0.247322 0.250336 0.00242948
20 1 0.379851 0.248428 0.00101326
21 1 0.503423 0.24981 -0.0013073
22 1 0.630228 0.251644 -0.010691
23 1 0.761223 0.238091 -0.00202177
24 1 0.874126 0.256448 -0.0110289
25 1 0.998528 0.375812 -0.0051096
26 1 0.12869 0.379682 -0.00620269
27 1 0.251494 0.376611 0.00163719
28 1 0.376745 0.378275 0.000526089
29 1 0.505741 0.369477 2.70085e-05
30 1 0.628662 0.370484 0.00423843
31 1 0.751244 0.368785 -0.00269089
32 1 0.878395 0.375732 -0.00118118
33 1 1.00095 0.493549 -0.000203224
34 1 0.118464 0.50256 0.00139829
35 1 0.254484 0.499253 -0.0064497
36 1 0.370189 0.502131 0.00165102
37 1 0.49979 0.49401 0.0066565
38 1 0.626883 0.496403 0.00131569
39 1 0.756075 0.497552 -0.00072395
40 1 0.869096 0.508547 0.00259781
41 1 0.994733 0.627352 -0.00234156
42 1 0.128083 0.620272 -0.00146357
43 1 0.249736 0.62645 1.72419e-05
44 1 0.379175 0.620307 -0.00113213
45 1 0.498183 0.625949 -0.000584461
46 1 0.628659 0.617117 0.000318617
47 1 0.7454 0.628946 -0.00693312
48 1 0.875405 0.620448 -0.000269244
49 1 1.00162 0.749358 0.000333323
50 1 0.125773 0.745854 0.00467398
51 1 0.250848 0.751594 -0.00187599
52 1 0.374879 0.750516 0.000406339
53 1 0.498869 0.743662 0.0129813
54 1 0.626814 0.748989 0.00666614
55 1 0.751809 0.745401 0.0126635
56 1 0.870459 0.753487 0.00357425
57 1 1.00337 0.873895 -0.00240749
58 1 0.122204 0.880273 0.00104996
59 1 0.255295 0.879783 -0.00623698
60 1 0.383661 0.880218 -0.00773464
61 1 0.501658 0.874335 -0.00179743
62 1 0.630802 0.873082 1.66708e-05
63 1 0.753266 0.874687 -0.000462421
64 1 0.881278 0.869468 0.00666391
65 1 0.996314 -0.00392268 0.129327
66 1 0.125694 0.00137652 0.126683
67 1 0.246869 -0.00147792 0.125603
68 1 0.379967 -0.00747671 0.121364
69 1 0.498164 0.00191842 0.120991
70 1 0.625217 -0.00107611 0.118127
71 1 0.743673 0.00372077 0.121994
72 1 0.87766 -0.00675946 0.12406
73 1 1.00121 0.123121 0.122858
74 1 0.130614 0.125592 0.116968
75 1 0.249888 0.126732 0.122218
76 1 0.38001 0.119576 0.122456
77 1 0.498609 0.120259 0.123969
78 1 0.624386 0.131322 0.120076
79 1 0.756591 0.1204 0.12819
80 1 0.881278 0.121318 0.127111
81 1 1.00246 0.255391 0.119038
82 1 0.118596 0.254977 0.124089
83 1 0.257213 0.251507 0.120252
84 1 0.377391 0.24614 0.12349
85 1 0.50329 0.240205 0.125446
86 1 0.629662 0.250541 0.117388
87 1 0.759047 0.243857 0.122149
88 1 0.88212 0.25176 0.120797
89 1 0.999036 0.37332 0.119474
90 1 0.120216 0.378902 0.116505
91 1 0.255645 0.374467 0.122234
92 1 0.372919 0.37667 0.12295
93 1 0.500389 0.370175 0.125931
94 1 0.632052 0.360958 0.132428
95 1 0.750685 0.36987 0.128246
96 1 0.871061 0.373037 0.129662
97 1 0.987504 0.509274 0.127778
98 1 0.123855 0.501277 0.123948
99 1 0.251446 0.499638 0.119205
100 1 0.374678 0.489051 0.12903
101 1 0.50242 0.494 0.126003
102 1 0.620638 0.495494 0.126764
103 1 0.749107 0.497484 0.124743
104 1 0.875392 0.503886 0.124037
105 1 1.00042 0.627233 0.118848
106 1 0.120526 0.625266 0.124921
107 1 0.255951 0.622333 0.117873
108 1 0.371925 0.6223 0.124904
109 1 0.504529 0.611021 0.128272
110 1 0.630509 0.618444 0.125718
111 1 0.747915 0.616538 0.135814
112 1 0.862406 0.632666 0.131577
113 1 0.998975 0.75285 0.122747
114 1 0.128022 0.742096 0.129273
115 1 0.247113 0.754997 0.11674
116 1 0.381315 0.746648 0.126153
117 1 0.497713 0.74106 0.133895
118 1 0.622967 0.741515 0.13254
119 1 0.743802 0.752862 0.131324
120 1 0.874363 0.750795 0.130016
121 1 1.00602 0.868006 0.127425
122 1 0.129476 0.880228 0.116068
123 1 0.249939 0.875569 0.120553
124 1 0.376992 0.868109 0.124855
125 1 0.493374 0.868163 0.132863
126 1 0.618105 0.873181 0.126302
127 1 0.75111 0.872473 0.12621
128 1 0.876179 0.871026 0.129249
129 1 1.00381 -0.00318582 0.247829
130 1 0.124426 0.0111693 0.245307
131 1 0.251403 -0.00859688 0.251756
132 1 0.371334 -0.00233349 0.252083
133 1 0.492961 0.00192866 0.251676
134 1 0.621424 0.00819553 0.244349
135 1 0.741586 -0.0030939 0.255152
136 1 0.875584 0.00202622 0.249063
137 1 0.9987 0.127977 0.240369
138 1 0.124295 0.131249 0.245416
139 1 0.256029 0.124075 0.239945
140 1 0.365815 0.130044 0.25446
141 1 0.501588 0.126631 0.249042
142 1 0.622864 0.126292 0.252248
143 1 0.752615 0.121691 0.246342
144 1 0.876474 0.12317 0.249169
145 1 0.995577 0.259019 0.252401
146 1 0.126172 0.250877 0.244363
147 1 0.245305 0.255116 0.2474
148 1 0.373259 0.252043 0.249241
149 1 0.502343 0.249873 0.245618
150 1 0.623697 0.242122 0.255117
151 1 0.749927 0.252888 0.241805
152 1 0.877705 0.247901 0.244483
153 1 0.995087 0.379196 0.250919
154 1 0.127445 0.372699 0.239378
155 1 0.249787 0.377931 0.247867
156 1 0.372034 0.372537 0.252905
157 1 0.506024 0.377792 0.246712
158 1 0.621178 0.375789 0.258302
159 1 0.748795 0.374883 0.249151
160 1 0.870631 0.377246 0.249572
161 1 0.997532 0.498466 0.250752
162 1 0.121285 0.497348 0.245998
163 1 0.250514 0.494037 0.254979
164 1 0.37254 0.499036 0.255412
165 1 0.500978 0.492461 0.254161
166 1 0.634313 0.499922 0.251653
167 1 0.748693 0.497152 0.259259
168 1 0.865014 0.510363 0.255645
169 1 0.998477 0.619724 0.256494
170 1 0.130809 0.616698 0.248542
171 1 0.251232 0.623985 0.242389
172 1 0.375042 0.624842 0.244588
173 1 0.501843 0.620797 0.252453
174 1 0.618539 0.629121 0.259644
175 1 0.740584 0.624397 0.258441
176 1 0.873154 0.633923 0.247674
177 1 0.998071 0.741215 0.252081
178 1 0.11802 0.749044 0.252705
179 1 0.24707 0.751584 0.245856
180 1 0.372601 0.745441 0.248335
181 1 0.499275 0.750472 0.251743
182 1 0.620035 0.752474 0.252816
183 1 0.744913 0.75613 0.25417
184 1 0.863834 0.755462 0.261417
185 1 1.00678 0.871821 0.247178
186 1 0.130627 0.873743 0.2479
187 1 0.242242 0.878431 0.251585
188 1 0.370884 0.864539 0.253322
189 1 0.497373 0.881832 0.250248
190 1 0.618862 0.879492 0.253305
191 1 0.745412 0.880079 0.247288
192 1 0.882013 0.868323 0.247303
193 1 1.00038 0.00547617 0.37448
194 1 0.122349 -0.0028735 0.377658
195 1 0.251361 0.000965135 0.370799
196 1 0.372334 0.00851927 0.369555
197 1 0.495213 0.00464884 0.3738
198 1 0.621681 0.00154256 0.371775
199 1 0.750473 0.00269769 0.373737
200 1 0.879686 0.00113109 0.378953
201 1 1.00611 0.130557 0.367115
202 1 0.125103 0.128566 0.372039
203 1 0.241477 0.138323 0.368818
204 1 0.374065 0.128474 0.375044
205 1 0.498032 0.127665 0.36938
206 1 0.619098 0.122526 0.383016
207 1 0.749481 0.129627 0.365433
208 1 0.87251 0.129615 0.372037
209 1 0.999314 0.252507 0.378688
210 1 0.124502 0.252323 0.373707
211 1 0.25421 0.250692 0.369961
212 1 0.382044 0.244366 0.380055
213 1 0.49871 0.24867 0.372829
214 1 0.619767 0.247698 0.376808
215 1 0.742497 0.25497 0.369551
216 1 0.874625 0.249669 0.373691
217 1 1.00209 0.373947 0.371365
218 1 0.123457 0.375423 0.372195
219 1 0.247238 0.376641 0.376476
220 1 0.377806 0.375354 0.375222
221 1 0.492393 0.375639 0.384955
222 1 0.619674 0.370423 0.382188
223 1 0.744133 0.375716 0.373032
224 1 0.873787 0.372484 0.378825
225 1 0.998291 0.494054 0.37773
226 1 0.129227 0.493615 0.372387
227 1 0.244193 0.500452 0.381937
228 1 0.372409 0.500005 0.373899
229 1 0.509927 0.496439 0.375966
230 1 0.621706 0.504341 0.381829
231 1 0.745523 0.49755 0.38245
232 1 0.876061 0.492816 0.379685
233 1 0.998639 0.619523 0.376601
234 1 0.12083 0.627319 0.373671
235 1 0.249585 0.623208 0.37149
236 1 0.377946 0.629077 0.370011
237 1 0.502029 0.622685 0.378936
238 1 0.619349 0.627032 0.381081
239 1 0.751402 0.627489 0.370077
240 1 0.868852 0.631422 0.37366
241 1 0.996496 0.748212 0.37335
242 1 0.127588 0.744441 0.372433
243 1 0.250373 0.74373 0.376265
244 1 0.375845 0.747942 0.379399
245 1 0.497228 0.752337 0.378932
246 1 0.626637 0.749005 0.380752
247 1 0.743595 0.755323 0.38123
248 1 0.871289 0.74751 0.376715
249 1 1.00412 0.865525 0.373749
250 1 0.123288 0.877088 0.380062
251 1 0.247015 0.873743 0.379262
252 1 0.376216 0.87494 0.377463
253 1 0.497146 0.869979 0.374779
254 1 0.619883 0.883722 0.375411
255 1 0.754536 0.880975 0.369888
256 1 0.872551 0.87955 0.373746
257 1 1.00391 0.00195383 0.496995
258 1 0.121647 0.00441963 0.493659
259 1 0.251575 -0.00366414 0.499768
260 1 0.372387 -0.00249993 0.504589
261 1 0.494846 0.00768805 0.501026
262 1 0.620175 -0.00276271 0.505606
263 1 0.75274 0.000108554 0.497556
264 1 0.865714 0.00539417 0.5051
265 1 1.00607 0.127113 0.494224
266 1 0.129451 0.129303 0.498388
267 1 0.255692 0.122697 0.492324
268 1 0.376097 0.128307 0.500183
269 1 0.496753 0.126982 0.507459
270 1 0.623796 0.13025 0.498407
271 1 0.751082 0.127387 0.498103
272 1 0.879522 0.128886 0.494036
273 1 1.0066 0.252058 0.498367
274 1 0.129974 0.25616 0.499406
275 1 0.246074 0.258393 0.498246
276 1 0.370342 0.258597 0.49386
277 1 0.494053 0.249362 0.507821
278 1 0.624264 0.249349 0.504047
279 1 0.745471 0.255231 0.497319
280 1 0.884912 0.245499 0.49788
281 1 0.993984 0.372381 0.502447
282 1 0.122662 0.377521 0.495722
283 1 0.246837 0.376879 0.502201
284 1 0.370032 0.379369 0.501619
285 1 0.494121 0.375569 0.507556
286 1 0.622447 0.384719 0.503285
287 1 0.75794 0.375207 0.498728
288 1 0.87947 0.370451 0.502822
289 1 0.998713 0.498634 0.502016
290 1 0.115668 0.506153 0.504698
291 1 0.250238 0.502597 0.49664
292 1 0.367115 0.503202 0.501535
293 1 0.493651 0.499801 0.506562
294 1 0.622145 0.506631 0.500965
295 1 0.753843 0.511457 0.496468
296 1 0.879434 0.493852 0.504506
297 1 0.995966 0.623584 0.503611
298 1 0.124858 0.622436 0.507828
299 1 0.252354 0.629944 0.498218
300 1 0.371816 0.628359 0.504468
301 1 0.499676 0.625864 0.501839
302 1 0.622694 0.626054 0.503862
303 1 0.747864 0.630132 0.499352
304 1 0.872463 0.635797 0.49992
305 1 1.00681 0.752103 0.489125
306 1 0.123481 0.753979 0.503538
307 1 0.251255 0.748993 0.498409
308 1 0.376794 0.748325 0.501915
309 1 0.501378 0.752067 0.50149
310 1 0.630752 0.751019 0.498279
311 1 0.750898 0.74881 0.507202
312 1 0.876168 0.756119 0.494937
313 1 0.993612 0.87158 0.502008
314 1 0.118578 0.875643 0.501848
315 1 0.2496 0.873112 0.501677
316 1 0.378444 0.875204 0.504192
317 1 0.498918 0.873092 0.502653
318 1 0.618896 0.883893 0.492922
319 1 0.74212 0.880093 0.498082
320 1 0.882092 0.872658 0.492355
321 1 0.999726 0.000123282 0.621689
322 1 0.124712 -0.00325732 0.62649
323 1 0.252129 0.0058498 0.623672
324 1 0.377584 -0.0035576 0.627403
325 1 0.491367 0.00225582 0.631791
326 1 0.629539 -0.00614679 0.62348
327 1 0.748562 0.00402657 0.619121
328 1 0.876076 -0.00903789 0.629321
329 1 1.00377 0.122854 0.627263
330 1 0.125956 0.126749 0.62397
331 1 0.247919 0.125357 0.620107
332 1 0.372125 0.130934 0.622772
333 1 0.501174 0.125605 0.6254
334 1 0.62502 0.124995 0.626743
335 1 0.751603 0.124438 0.624234
336 1 0.870299 0.122733 0.626461
337 1 1.00176 0.247877 0.623233
338 1 0.124547 0.2554 0.622663
339 1 0.243508 0.258445 0.618916
340 1 0.371869 0.251557 0.625455
341 1 0.500327 0.248714 0.624605
342 1 0.630122 0.251222 0.623544
343 1 0.751138 0.250165 0.621329
344 1 0.878319 0.246215 0.617838
345 1 0.999635 0.376314 0.619858
346 1 0.117874 0.376603 0.626393
347 1 0.250779 0.375114 0.623923
348 1 0.37428 0.378273 0.630078
349 1 0.507831 0.374825 0.626249
350 1 0.631366 0.384016 0.615584
351 1 0.750018 0.37663 0.626559
352 1 0.877256 0.371653 0.624059
353 1 0.993252 0.499894 0.632932
354 1 0.119566 0.499281 0.631006
355 1 0.246279 0.505681 0.620701
356 1 0.364936 0.508555 0.624417
357 1 0.504855 0.49875 0.625489
358 1 0.630192 0.503804 0.623911
359 1 0.755952 0.494112 0.628895
360 1 0.867094 0.505837 0.628782
361 1 1.00002 0.622099 0.627939
362 1 0.115943 0.623898 0.626482
363 1 0.239157 0.632357 0.623415
364 1 0.37962 0.623124 0.624399
365 1 0.501024 0.630734 0.624193
366 1 0.634127 0.618927 0.623175
367 1 0.7515 0.621973 0.629277
368 1 0.871519 0.624082 0.626505
369 1 0.998997 0.745787 0.628029
370 1 0.117917 0.758693 0.633594
371 1 0.247048 0.756547 0.624402
372 1 0.384556 0.745654 0.624933
373 1 0.504887 0.75298 0.62516
374 1 0.622389 0.745421 0.628137
375 1 0.747932 0.742538 0.63253
376 1 0.871203 0.751004 0.622315
377 1 0.999443 0.875906 0.620704
378 1 0.124292 0.880621 0.618426
379 1 0.254167 0.872902 0.622418
380 1 0.366125 0.877172 0.629265
381 1 0.501719 0.881139 0.625231
382 1 0.631734 0.86547 0.626302
383 1 0.753937 0.877233 0.618333
384 1 0.866319 0.873006 0.629504
385 1 1.00066 -0.000918938 0.745688
386 1 0.1254 -0.00490203 0.760736
387 1 0.254564 0.00250263 0.746693
388 1 0.373614 0.00420986 0.754187
389 1 0.503713 0.00205056 0.755016
390 1 0.629943 -0.00303808 0.749712
391 1 0.75159 0.00355998 0.746837
392 1 0.87589 -0.00570874 0.755128
393 1 0.999335 0.120448 0.756372
394 1 0.127174 0.117034 0.751082
395 1 0.25018 0.12738 0.747284
396 1 0.376499 0.124478 0.746661
397 1 0.493434 0.129308 0.754942
398 1 0.630833 0.126577 0.74849
399 1 0.751815 0.129181 0.745032
400 1 0.883061 0.124823 0.746873
401 1 0.999023 0.247453 0.750661
402 1 0.126487 0.243084 0.75105
403 1 0.246656 0.255032 0.747858
404 1 0.37553 0.244707 0.754829
405 1 0.504608 0.249165 0.742409
406 1 0.626388 0.247592 0.751026
407 1 0.767131 0.239143 0.744695
408 1 0.884034 0.249098 0.747714
409 1 1.00209 0.375457 0.748871
410 1 0.116904 0.377242 0.749079
411 1 0.251079 0.373398 0.750829
412 1 0.385809 0.374552 0.745822
413 1 0.506228 0.377758 0.74767
414 1 0.625842 0.375265 0.752049
415 1 0.747201 0.370627 0.749714
416 1 0.877328 0.376385 0.749248
417 1 0.993605 0.507199 0.753038
418 1 0.128933 0.496782 0.747234
419 1 0.258304 0.492636 0.745964
420 1 0.380181 0.499295 0.747304
421 1 0.507315 0.502709 0.745099
422 1 0.630125 0.500266 0.752294
423 1 0.748395 0.501505 0.751482
424 1 0.873435 0.501494 0.755775
425 1 1.00198 0.622124 0.752895
426 1 0.123784 0.623677 0.752852
427 1 0.252734 0.623885 0.75121
428 1 0.37424 0.624029 0.747466
429 1 0.500549 0.620996 0.754754
430 1 0.626717 0.626244 0.749251
431 1 0.752605 0.623851 0.754242
432 1 0.872628 0.629028 0.748447
433 1 0.995761 0.750799 0.757359
434 1 0.128422 0.753793 0.749656
435 1 0.252011 0.752585 0.754474
436 1 0.378349 0.753192 0.747597
437 1 0.499031 0.761394 0.743849
438 1 0.623178 0.744399 0.759298
439 1 0.750304 0.748205 0.753968
440 1 0.873189 0.750978 0.754882
441 1 1.00321 0.873338 0.749504
442 1 0.133102 0.875054 0.750072
443 1 0.24841 0.877418 0.746663
444 1 0.376993 0.882441 0.746133
445 1 0.503636 0.879213 0.749307
446 1 0.62485 0.875651 0.751737
447 1 0.75301 0.876258 0.745509
448 1 0.874582 0.868739 0.758052
449 1 0.996818 -0.00152266 0.88106
450 1 0.120415 -0.00191031 0.881663
451 1 0.244899 0.00573995 0.870933
452 1 0.374495 0.00631019 0.870087
453 1 0.495874 0.00470548 0.876558
454 1 0.626393 0.00373214 0.873353
455 1 0.754292 0.00118614 0.870443
456 1 0.876705 -0.00550166 0.878847
457 1 0.998467 0.124549 0.879543
458 1 0.13016 0.126276 0.86735
459 1 0.247101 0.127978 0.874155
460 1 0.371693 0.126354 0.879024
461 1 0.499031 0.130178 0.877036
462 1 0.624479 0.125074 0.871272
463 1 0.745538 0.124952 0.872306
464 1 0.884307 0.116391 0.8791
465 1 0.999113 0.24694 0.872562
466 1 0.122684 0.25929 0.864089
467 1 0.251195 0.250908 0.869452
468 1 0.371781 0.251418 0.881959
469 1 0.505863 0.257208 0.868677
470 1 0.624228 0.239687 0.874261
471 1 0.74791 0.239928 0.87674
472 1 0.877956 0.251396 0.867785
473 1 0.998887 0.36926 0.87161
474 1 0.124975 0.371447 0.871561
475 1 0.255382 0.374836 0.872631
476 1 0.374142 0.372678 0.881832
477 1 0.500144 0.376416 0.874055
478 1 0.620931 0.38048 0.873596
479 1 0.754312 0.375337 0.865297
480 1 0.876829 0.378656 0.868854
481 1 0.997224 0.500001 0.876117
482 1 0.12647 0.501553 0.868938
483 1 0.249507 0.491965 0.881178
484 1 0.374335 0.502164 0.873396
485 1 0.49028 0.496267 0.880419
486 1 0.624462 0.494566 0.878139
487 1 0.749709 0.493304 0.877982
488 1 0.875583 0.504647 0.872118
489 1 1.00426 0.622995 0.874593
490 1 0.134858 0.62114 0.868693
491 1 0.256706 0.620651 0.873261
492 1 0.375145 0.62367 0.878509
493 1 0.497937 0.625298 0.874342
494 1 0.623899 0.620795 0.879255
495 1 0.745806 0.626999 0.878001
496 1 0.87451 0.624188 0.878606
497 1 0.996126 0.754849 0.880214
498 1 0.132407 0.741765 0.874203
499 1 0.251999 0.749455 0.878015
500 1 0.372632 0.748392 0.876991
501 1 0.505138 0.74862 0.866373
502 1 0.618574 0.743297 0.886299
503 1 0.74819 0.748941 0.878646
504 1 0.869514 0.751896 0.876234
505 1 1.0078 0.872421 0.872259
506 1 0.130879 0.86431 0.882083
507 1 0.247718 0.879001 0.874542
508 1 0.375655 0.873324 0.873113
509 1 0.497957 0.874163 0.875945
510 1 0.618352 0.876413 0.875547
511 1 0.745463 0.882185 0.867586
512 1 0.869952 0.875692 0.880547
ITEM: TIMESTEP
100000
ITEM: NUMBER OF ATOMS
512
ITEM: BOX BOUNDS xy xz yz pp pp pp
-8.0273911378316853e-02 4.6387756896084703e+01 1.1617007772352800e+01