FCC(001) cell with dimension 8 x 8 x 8

512  atoms
  1  atom types

     0.00000000     22.89148225 xlo xhi
     0.00000000     19.82460516 ylo yhi
     0.00000000     18.69081698 zlo zhi
    11.44574112     11.44574112      6.60820172 xy xz yz

Atoms

  1  1   0.00000000     0.0000000000     0.00000000
  2  1   2.86143528     0.0000000000     0.00000000
  3  1   5.72287057     0.0000000000     0.00000000
  4  1   8.58430584     0.0000000000     0.00000000
  5  1   11.44574113     0.0000000000     0.00000000
  6  1   14.30717641     0.0000000000     0.00000000
  7  1   17.16861169     0.0000000000     0.00000000
  8  1   20.03004697     0.0000000000     0.00000000
  9  1   1.43071764     2.4780756536     0.00000000
 10  1   4.29215292     2.4780756536     0.00000000
 11  1   7.15358820     2.4780756536     0.00000000
 12  1   10.01502349     2.4780756536     0.00000000
 13  1   12.87645876     2.4780756536     0.00000000
 14  1   15.73789405     2.4780756536     0.00000000
 15  1   18.59932933     2.4780756536     0.00000000
 16  1   21.46076461     2.4780756536     0.00000000
 17  1   2.86143528     4.9561512971     0.00000000
 18  1   5.72287057     4.9561512971     0.00000000
 19  1   8.58430584     4.9561512971     0.00000000
 20  1   11.44574113     4.9561512971     0.00000000
 21  1   14.30717641     4.9561512971     0.00000000
 22  1   17.16861169     4.9561512971     0.00000000
 23  1   20.03004697     4.9561512971     0.00000000
 24  1   22.89148225     4.9561512971     0.00000000
 25  1   4.29215292     7.4342269407     0.00000000
 26  1   7.15358820     7.4342269407     0.00000000
 27  1   10.01502349     7.4342269407     0.00000000
 28  1   12.87645876     7.4342269407     0.00000000
 29  1   15.73789405     7.4342269407     0.00000000
 30  1   18.59932933     7.4342269407     0.00000000
 31  1   21.46076461     7.4342269407     0.00000000
 32  1   24.32219990     7.4342269407     0.00000000
 33  1   5.72287057     9.9123025842     0.00000000
 34  1   8.58430584     9.9123025842     0.00000000
 35  1   11.44574113     9.9123025842     0.00000000
 36  1   14.30717641     9.9123025842     0.00000000
 37  1   17.16861169     9.9123025842     0.00000000
 38  1   20.03004697     9.9123025842     0.00000000
 39  1   22.89148225     9.9123025842     0.00000000
 40  1   25.75291754     9.9123025842     0.00000000
 41  1   7.15358820     12.3903782378     0.00000000
 42  1   10.01502349     12.3903782378     0.00000000
 43  1   12.87645876     12.3903782378     0.00000000
 44  1   15.73789405     12.3903782378     0.00000000
 45  1   18.59932933     12.3903782378     0.00000000
 46  1   21.46076461     12.3903782378     0.00000000
 47  1   24.32219990     12.3903782378     0.00000000
 48  1   27.18363517     12.3903782378     0.00000000
 49  1   8.58430584     14.8684538713     0.00000000
 50  1   11.44574113     14.8684538713     0.00000000
 51  1   14.30717641     14.8684538713     0.00000000
 52  1   17.16861169     14.8684538713     0.00000000
 53  1   20.03004697     14.8684538713     0.00000000
 54  1   22.89148225     14.8684538713     0.00000000
 55  1   25.75291754     14.8684538713     0.00000000
 56  1   28.61435282     14.8684538713     0.00000000
 57  1   10.01502349     17.3465295249     0.00000000
 58  1   12.87645876     17.3465295249     0.00000000
 59  1   15.73789405     17.3465295249     0.00000000
 60  1   18.59932933     17.3465295249     0.00000000
 61  1   21.46076461     17.3465295249     0.00000000
 62  1   24.32219990     17.3465295249     0.00000000
 63  1   27.18363517     17.3465295249     0.00000000
 64  1   30.04507046     17.3465295249     0.00000000
 65  1   1.43071764     0.8260252279     2.33635212
 66  1   4.29215292     0.8260252279     2.33635212
 67  1   7.15358820     0.8260252279     2.33635212
 68  1   10.01502349     0.8260252279     2.33635212
 69  1   12.87645876     0.8260252279     2.33635212
 70  1   15.73789405     0.8260252279     2.33635212
 71  1   18.59932933     0.8260252279     2.33635212
 72  1   21.46076461     0.8260252279     2.33635212
 73  1   2.86143528     3.3041008614     2.33635212
 74  1   5.72287057     3.3041008614     2.33635212
 75  1   8.58430584     3.3041008614     2.33635212
 76  1   11.44574113     3.3041008614     2.33635212
 77  1   14.30717641     3.3041008614     2.33635212
 78  1   17.16861169     3.3041008614     2.33635212
 79  1   20.03004697     3.3041008614     2.33635212
 80  1   22.89148225     3.3041008614     2.33635212
 81  1   4.29215292     5.7821765150     2.33635212
 82  1   7.15358820     5.7821765150     2.33635212
 83  1   10.01502349     5.7821765150     2.33635212
 84  1   12.87645876     5.7821765150     2.33635212
 85  1   15.73789405     5.7821765150     2.33635212
 86  1   18.59932933     5.7821765150     2.33635212
 87  1   21.46076461     5.7821765150     2.33635212
 88  1   24.32219990     5.7821765150     2.33635212
 89  1   5.72287057     8.2602521585     2.33635212
 90  1   8.58430584     8.2602521585     2.33635212
 91  1   11.44574113     8.2602521585     2.33635212
 92  1   14.30717641     8.2602521585     2.33635212
 93  1   17.16861169     8.2602521585     2.33635212
 94  1   20.03004697     8.2602521585     2.33635212
 95  1   22.89148225     8.2602521585     2.33635212
 96  1   25.75291754     8.2602521585     2.33635212
 97  1   7.15358820     10.7383278021     2.33635212
 98  1   10.01502349     10.7383278021     2.33635212
 99  1   12.87645876     10.7383278021     2.33635212
100  1   15.73789405     10.7383278021     2.33635212
101  1   18.59932933     10.7383278021     2.33635212
102  1   21.46076461     10.7383278021     2.33635212
103  1   24.32219990     10.7383278021     2.33635212
104  1   27.18363517     10.7383278021     2.33635212
105  1   8.58430584     13.2164034456     2.33635212
106  1   11.44574113     13.2164034456     2.33635212
107  1   14.30717641     13.2164034456     2.33635212
108  1   17.16861169     13.2164034456     2.33635212
109  1   20.03004697     13.2164034456     2.33635212
110  1   22.89148225     13.2164034456     2.33635212
111  1   25.75291754     13.2164034456     2.33635212
112  1   28.61435282     13.2164034456     2.33635212
113  1   10.01502349     15.6944790992     2.33635212
114  1   12.87645876     15.6944790992     2.33635212
115  1   15.73789405     15.6944790992     2.33635212
116  1   18.59932933     15.6944790992     2.33635212
117  1   21.46076461     15.6944790992     2.33635212
118  1   24.32219990     15.6944790992     2.33635212
119  1   27.18363517     15.6944790992     2.33635212
120  1   30.04507046     15.6944790992     2.33635212
121  1   11.44574113     18.1725547327     2.33635212
122  1   14.30717641     18.1725547327     2.33635212
123  1   17.16861169     18.1725547327     2.33635212
124  1   20.03004697     18.1725547327     2.33635212
125  1   22.89148225     18.1725547327     2.33635212
126  1   25.75291754     18.1725547327     2.33635212
127  1   28.61435282     18.1725547327     2.33635212
128  1   31.47578810     18.1725547327     2.33635212
129  1   2.86143528     1.6520504357     4.67270425
130  1   5.72287057     1.6520504357     4.67270425
131  1   8.58430584     1.6520504357     4.67270425
132  1   11.44574113     1.6520504357     4.67270425
133  1   14.30717641     1.6520504357     4.67270425
134  1   17.16861169     1.6520504357     4.67270425
135  1   20.03004697     1.6520504357     4.67270425
136  1   22.89148225     1.6520504357     4.67270425
137  1   4.29215292     4.1301260893     4.67270425
138  1   7.15358820     4.1301260893     4.67270425
139  1   10.01502349     4.1301260893     4.67270425
140  1   12.87645876     4.1301260893     4.67270425
141  1   15.73789405     4.1301260893     4.67270425
142  1   18.59932933     4.1301260893     4.67270425
143  1   21.46076461     4.1301260893     4.67270425
144  1   24.32219990     4.1301260893     4.67270425
145  1   5.72287057     6.6082017228     4.67270425
146  1   8.58430584     6.6082017228     4.67270425
147  1   11.44574113     6.6082017228     4.67270425
148  1   14.30717641     6.6082017228     4.67270425
149  1   17.16861169     6.6082017228     4.67270425
150  1   20.03004697     6.6082017228     4.67270425
151  1   22.89148225     6.6082017228     4.67270425
152  1   25.75291754     6.6082017228     4.67270425
153  1   7.15358820     9.0862773764     4.67270425
154  1   10.01502349     9.0862773764     4.67270425
155  1   12.87645876     9.0862773764     4.67270425
156  1   15.73789405     9.0862773764     4.67270425
157  1   18.59932933     9.0862773764     4.67270425
158  1   21.46076461     9.0862773764     4.67270425
159  1   24.32219990     9.0862773764     4.67270425
160  1   27.18363517     9.0862773764     4.67270425
161  1   8.58430584     11.5643530199     4.67270425
162  1   11.44574113     11.5643530199     4.67270425
163  1   14.30717641     11.5643530199     4.67270425
164  1   17.16861169     11.5643530199     4.67270425
165  1   20.03004697     11.5643530199     4.67270425
166  1   22.89148225     11.5643530199     4.67270425
167  1   25.75291754     11.5643530199     4.67270425
168  1   28.61435282     11.5643530199     4.67270425
169  1   10.01502349     14.0424286635     4.67270425
170  1   12.87645876     14.0424286635     4.67270425
171  1   15.73789405     14.0424286635     4.67270425
172  1   18.59932933     14.0424286635     4.67270425
173  1   21.46076461     14.0424286635     4.67270425
174  1   24.32219990     14.0424286635     4.67270425
175  1   27.18363517     14.0424286635     4.67270425
176  1   30.04507046     14.0424286635     4.67270425
177  1   11.44574113     16.5205043070     4.67270425
178  1   14.30717641     16.5205043070     4.67270425
179  1   17.16861169     16.5205043070     4.67270425
180  1   20.03004697     16.5205043070     4.67270425
181  1   22.89148225     16.5205043070     4.67270425
182  1   25.75291754     16.5205043070     4.67270425
183  1   28.61435282     16.5205043070     4.67270425
184  1   31.47578810     16.5205043070     4.67270425
185  1   12.87645876     18.9985799506     4.67270425
186  1   15.73789405     18.9985799506     4.67270425
187  1   18.59932933     18.9985799506     4.67270425
188  1   21.46076461     18.9985799506     4.67270425
189  1   24.32219990     18.9985799506     4.67270425
190  1   27.18363517     18.9985799506     4.67270425
191  1   30.04507046     18.9985799506     4.67270425
192  1   32.90650574     18.9985799506     4.67270425
193  1   4.29215292     2.4780756536     7.00905637
194  1   7.15358820     2.4780756536     7.00905637
195  1   10.01502349     2.4780756536     7.00905637
196  1   12.87645876     2.4780756536     7.00905637
197  1   15.73789405     2.4780756536     7.00905637
198  1   18.59932933     2.4780756536     7.00905637
199  1   21.46076461     2.4780756536     7.00905637
200  1   24.32219990     2.4780756536     7.00905637
201  1   5.72287057     4.9561512971     7.00905637
202  1   8.58430584     4.9561512971     7.00905637
203  1   11.44574113     4.9561512971     7.00905637
204  1   14.30717641     4.9561512971     7.00905637
205  1   17.16861169     4.9561512971     7.00905637
206  1   20.03004697     4.9561512971     7.00905637
207  1   22.89148225     4.9561512971     7.00905637
208  1   25.75291754     4.9561512971     7.00905637
209  1   7.15358820     7.4342269407     7.00905637
210  1   10.01502349     7.4342269407     7.00905637
211  1   12.87645876     7.4342269407     7.00905637
212  1   15.73789405     7.4342269407     7.00905637
213  1   18.59932933     7.4342269407     7.00905637
214  1   21.46076461     7.4342269407     7.00905637
215  1   24.32219990     7.4342269407     7.00905637
216  1   27.18363517     7.4342269407     7.00905637
217  1   8.58430584     9.9123025842     7.00905637
218  1   11.44574113     9.9123025842     7.00905637
219  1   14.30717641     9.9123025842     7.00905637
220  1   17.16861169     9.9123025842     7.00905637
221  1   20.03004697     9.9123025842     7.00905637
222  1   22.89148225     9.9123025842     7.00905637
223  1   25.75291754     9.9123025842     7.00905637
224  1   28.61435282     9.9123025842     7.00905637
225  1   10.01502349     12.3903782378     7.00905637
226  1   12.87645876     12.3903782378     7.00905637
227  1   15.73789405     12.3903782378     7.00905637
228  1   18.59932933     12.3903782378     7.00905637
229  1   21.46076461     12.3903782378     7.00905637
230  1   24.32219990     12.3903782378     7.00905637
231  1   27.18363517     12.3903782378     7.00905637
232  1   30.04507046     12.3903782378     7.00905637
233  1   11.44574113     14.8684538713     7.00905637
234  1   14.30717641     14.8684538713     7.00905637
235  1   17.16861169     14.8684538713     7.00905637
236  1   20.03004697     14.8684538713     7.00905637
237  1   22.89148225     14.8684538713     7.00905637
238  1   25.75291754     14.8684538713     7.00905637
239  1   28.61435282     14.8684538713     7.00905637
240  1   31.47578810     14.8684538713     7.00905637
241  1   12.87645876     17.3465295249     7.00905637
242  1   15.73789405     17.3465295249     7.00905637
243  1   18.59932933     17.3465295249     7.00905637
244  1   21.46076461     17.3465295249     7.00905637
245  1   24.32219990     17.3465295249     7.00905637
246  1   27.18363517     17.3465295249     7.00905637
247  1   30.04507046     17.3465295249     7.00905637
248  1   32.90650574     17.3465295249     7.00905637
249  1   14.30717641     19.8246051684     7.00905637
250  1   17.16861169     19.8246051684     7.00905637
251  1   20.03004697     19.8246051684     7.00905637
252  1   22.89148225     19.8246051684     7.00905637
253  1   25.75291754     19.8246051684     7.00905637
254  1   28.61435282     19.8246051684     7.00905637
255  1   31.47578810     19.8246051684     7.00905637
256  1   34.33722338     19.8246051684     7.00905637
257  1   5.72287057     3.3041008614     9.34540849
258  1   8.58430584     3.3041008614     9.34540849
259  1   11.44574113     3.3041008614     9.34540849
260  1   14.30717641     3.3041008614     9.34540849
261  1   17.16861169     3.3041008614     9.34540849
262  1   20.03004697     3.3041008614     9.34540849
263  1   22.89148225     3.3041008614     9.34540849
264  1   25.75291754     3.3041008614     9.34540849
265  1   7.15358820     5.7821765150     9.34540849
266  1   10.01502349     5.7821765150     9.34540849
267  1   12.87645876     5.7821765150     9.34540849
268  1   15.73789405     5.7821765150     9.34540849
269  1   18.59932933     5.7821765150     9.34540849
270  1   21.46076461     5.7821765150     9.34540849
271  1   24.32219990     5.7821765150     9.34540849
272  1   27.18363517     5.7821765150     9.34540849
273  1   8.58430584     8.2602521585     9.34540849
274  1   11.44574113     8.2602521585     9.34540849
275  1   14.30717641     8.2602521585     9.34540849
276  1   17.16861169     8.2602521585     9.34540849
277  1   20.03004697     8.2602521585     9.34540849
278  1   22.89148225     8.2602521585     9.34540849
279  1   25.75291754     8.2602521585     9.34540849
280  1   28.61435282     8.2602521585     9.34540849
281  1   10.01502349     10.7383278021     9.34540849
282  1   12.87645876     10.7383278021     9.34540849
283  1   15.73789405     10.7383278021     9.34540849
284  1   18.59932933     10.7383278021     9.34540849
285  1   21.46076461     10.7383278021     9.34540849
286  1   24.32219990     10.7383278021     9.34540849
287  1   27.18363517     10.7383278021     9.34540849
288  1   30.04507046     10.7383278021     9.34540849
289  1   11.44574113     13.2164034456     9.34540849
290  1   14.30717641     13.2164034456     9.34540849
291  1   17.16861169     13.2164034456     9.34540849
292  1   20.03004697     13.2164034456     9.34540849
293  1   22.89148225     13.2164034456     9.34540849
294  1   25.75291754     13.2164034456     9.34540849
295  1   28.61435282     13.2164034456     9.34540849
296  1   31.47578810     13.2164034456     9.34540849
297  1   12.87645876     15.6944790992     9.34540849
298  1   15.73789405     15.6944790992     9.34540849
299  1   18.59932933     15.6944790992     9.34540849
300  1   21.46076461     15.6944790992     9.34540849
301  1   24.32219990     15.6944790992     9.34540849
302  1   27.18363517     15.6944790992     9.34540849
303  1   30.04507046     15.6944790992     9.34540849
304  1   32.90650574     15.6944790992     9.34540849
305  1   14.30717641     18.1725547327     9.34540849
306  1   17.16861169     18.1725547327     9.34540849
307  1   20.03004697     18.1725547327     9.34540849
308  1   22.89148225     18.1725547327     9.34540849
309  1   25.75291754     18.1725547327     9.34540849
310  1   28.61435282     18.1725547327     9.34540849
311  1   31.47578810     18.1725547327     9.34540849
312  1   34.33722338     18.1725547327     9.34540849
313  1   15.73789405     20.6506303863     9.34540849
314  1   18.59932933     20.6506303863     9.34540849
315  1   21.46076461     20.6506303863     9.34540849
316  1   24.32219990     20.6506303863     9.34540849
317  1   27.18363517     20.6506303863     9.34540849
318  1   30.04507046     20.6506303863     9.34540849
319  1   32.90650574     20.6506303863     9.34540849
320  1   35.76794102     20.6506303863     9.34540849
321  1   7.15358820     4.1301260893     11.68176063
322  1   10.01502349     4.1301260893     11.68176063
323  1   12.87645876     4.1301260893     11.68176063
324  1   15.73789405     4.1301260893     11.68176063
325  1   18.59932933     4.1301260893     11.68176063
326  1   21.46076461     4.1301260893     11.68176063
327  1   24.32219990     4.1301260893     11.68176063
328  1   27.18363517     4.1301260893     11.68176063
329  1   8.58430584     6.6082017228     11.68176063
330  1   11.44574113     6.6082017228     11.68176063
331  1   14.30717641     6.6082017228     11.68176063
332  1   17.16861169     6.6082017228     11.68176063
333  1   20.03004697     6.6082017228     11.68176063
334  1   22.89148225     6.6082017228     11.68176063
335  1   25.75291754     6.6082017228     11.68176063
336  1   28.61435282     6.6082017228     11.68176063
337  1   10.01502349     9.0862773764     11.68176063
338  1   12.87645876     9.0862773764     11.68176063
339  1   15.73789405     9.0862773764     11.68176063
340  1   18.59932933     9.0862773764     11.68176063
341  1   21.46076461     9.0862773764     11.68176063
342  1   24.32219990     9.0862773764     11.68176063
343  1   27.18363517     9.0862773764     11.68176063
344  1   30.04507046     9.0862773764     11.68176063
345  1   11.44574113     11.5643530199     11.68176063
346  1   14.30717641     11.5643530199     11.68176063
347  1   17.16861169     11.5643530199     11.68176063
348  1   20.03004697     11.5643530199     11.68176063
349  1   22.89148225     11.5643530199     11.68176063
350  1   25.75291754     11.5643530199     11.68176063
351  1   28.61435282     11.5643530199     11.68176063
352  1   31.47578810     11.5643530199     11.68176063
353  1   12.87645876     14.0424286635     11.68176063
354  1   15.73789405     14.0424286635     11.68176063
355  1   18.59932933     14.0424286635     11.68176063
356  1   21.46076461     14.0424286635     11.68176063
357  1   24.32219990     14.0424286635     11.68176063
358  1   27.18363517     14.0424286635     11.68176063
359  1   30.04507046     14.0424286635     11.68176063
360  1   32.90650574     14.0424286635     11.68176063
361  1   14.30717641     16.5205043070     11.68176063
362  1   17.16861169     16.5205043070     11.68176063
363  1   20.03004697     16.5205043070     11.68176063
364  1   22.89148225     16.5205043070     11.68176063
365  1   25.75291754     16.5205043070     11.68176063
366  1   28.61435282     16.5205043070     11.68176063
367  1   31.47578810     16.5205043070     11.68176063
368  1   34.33722338     16.5205043070     11.68176063
369  1   15.73789405     18.9985799506     11.68176063
370  1   18.59932933     18.9985799506     11.68176063
371  1   21.46076461     18.9985799506     11.68176063
372  1   24.32219990     18.9985799506     11.68176063
373  1   27.18363517     18.9985799506     11.68176063
374  1   30.04507046     18.9985799506     11.68176063
375  1   32.90650574     18.9985799506     11.68176063
376  1   35.76794102     18.9985799506     11.68176063
377  1   17.16861169     21.4766555941     11.68176063
378  1   20.03004697     21.4766555941     11.68176063
379  1   22.89148225     21.4766555941     11.68176063
380  1   25.75291754     21.4766555941     11.68176063
381  1   28.61435282     21.4766555941     11.68176063
382  1   31.47578810     21.4766555941     11.68176063
383  1   34.33722338     21.4766555941     11.68176063
384  1   37.19865866     21.4766555941     11.68176063
385  1   8.58430584     4.9561512971     14.01811275
386  1   11.44574113     4.9561512971     14.01811275
387  1   14.30717641     4.9561512971     14.01811275
388  1   17.16861169     4.9561512971     14.01811275
389  1   20.03004697     4.9561512971     14.01811275
390  1   22.89148225     4.9561512971     14.01811275
391  1   25.75291754     4.9561512971     14.01811275
392  1   28.61435282     4.9561512971     14.01811275
393  1   10.01502349     7.4342269407     14.01811275
394  1   12.87645876     7.4342269407     14.01811275
395  1   15.73789405     7.4342269407     14.01811275
396  1   18.59932933     7.4342269407     14.01811275
397  1   21.46076461     7.4342269407     14.01811275
398  1   24.32219990     7.4342269407     14.01811275
399  1   27.18363517     7.4342269407     14.01811275
400  1   30.04507046     7.4342269407     14.01811275
401  1   11.44574113     9.9123025842     14.01811275
402  1   14.30717641     9.9123025842     14.01811275
403  1   17.16861169     9.9123025842     14.01811275
404  1   20.03004697     9.9123025842     14.01811275
405  1   22.89148225     9.9123025842     14.01811275
406  1   25.75291754     9.9123025842     14.01811275
407  1   28.61435282     9.9123025842     14.01811275
408  1   31.47578810     9.9123025842     14.01811275
409  1   12.87645876     12.3903782378     14.01811275
410  1   15.73789405     12.3903782378     14.01811275
411  1   18.59932933     12.3903782378     14.01811275
412  1   21.46076461     12.3903782378     14.01811275
413  1   24.32219990     12.3903782378     14.01811275
414  1   27.18363517     12.3903782378     14.01811275
415  1   30.04507046     12.3903782378     14.01811275
416  1   32.90650574     12.3903782378     14.01811275
417  1   14.30717641     14.8684538713     14.01811275
418  1   17.16861169     14.8684538713     14.01811275
419  1   20.03004697     14.8684538713     14.01811275
420  1   22.89148225     14.8684538713     14.01811275
421  1   25.75291754     14.8684538713     14.01811275
422  1   28.61435282     14.8684538713     14.01811275
423  1   31.47578810     14.8684538713     14.01811275
424  1   34.33722338     14.8684538713     14.01811275
425  1   15.73789405     17.3465295249     14.01811275
426  1   18.59932933     17.3465295249     14.01811275
427  1   21.46076461     17.3465295249     14.01811275
428  1   24.32219990     17.3465295249     14.01811275
429  1   27.18363517     17.3465295249     14.01811275
430  1   30.04507046     17.3465295249     14.01811275
431  1   32.90650574     17.3465295249     14.01811275
432  1   35.76794102     17.3465295249     14.01811275
433  1   17.16861169     19.8246051684     14.01811275
434  1   20.03004697     19.8246051684     14.01811275
435  1   22.89148225     19.8246051684     14.01811275
436  1   25.75291754     19.8246051684     14.01811275
437  1   28.61435282     19.8246051684     14.01811275
438  1   31.47578810     19.8246051684     14.01811275
439  1   34.33722338     19.8246051684     14.01811275
440  1   37.19865866     19.8246051684     14.01811275
441  1   18.59932933     22.3026808120     14.01811275
442  1   21.46076461     22.3026808120     14.01811275
443  1   24.32219990     22.3026808120     14.01811275
444  1   27.18363517     22.3026808120     14.01811275
445  1   30.04507046     22.3026808120     14.01811275
446  1   32.90650574     22.3026808120     14.01811275
447  1   35.76794102     22.3026808120     14.01811275
448  1   38.62937631     22.3026808120     14.01811275
449  1   10.01502349     5.7821765150     16.35446487
450  1   12.87645876     5.7821765150     16.35446487
451  1   15.73789405     5.7821765150     16.35446487
452  1   18.59932933     5.7821765150     16.35446487
453  1   21.46076461     5.7821765150     16.35446487
454  1   24.32219990     5.7821765150     16.35446487
455  1   27.18363517     5.7821765150     16.35446487
456  1   30.04507046     5.7821765150     16.35446487
457  1   11.44574113     8.2602521585     16.35446487
458  1   14.30717641     8.2602521585     16.35446487
459  1   17.16861169     8.2602521585     16.35446487
460  1   20.03004697     8.2602521585     16.35446487
461  1   22.89148225     8.2602521585     16.35446487
462  1   25.75291754     8.2602521585     16.35446487
463  1   28.61435282     8.2602521585     16.35446487
464  1   31.47578810     8.2602521585     16.35446487
465  1   12.87645876     10.7383278021     16.35446487
466  1   15.73789405     10.7383278021     16.35446487
467  1   18.59932933     10.7383278021     16.35446487
468  1   21.46076461     10.7383278021     16.35446487
469  1   24.32219990     10.7383278021     16.35446487
470  1   27.18363517     10.7383278021     16.35446487
471  1   30.04507046     10.7383278021     16.35446487
472  1   32.90650574     10.7383278021     16.35446487
473  1   14.30717641     13.2164034456     16.35446487
474  1   17.16861169     13.2164034456     16.35446487
475  1   20.03004697     13.2164034456     16.35446487
476  1   22.89148225     13.2164034456     16.35446487
477  1   25.75291754     13.2164034456     16.35446487
478  1   28.61435282     13.2164034456     16.35446487
479  1   31.47578810     13.2164034456     16.35446487
480  1   34.33722338     13.2164034456     16.35446487
481  1   15.73789405     15.6944790992     16.35446487
482  1   18.59932933     15.6944790992     16.35446487
483  1   21.46076461     15.6944790992     16.35446487
484  1   24.32219990     15.6944790992     16.35446487
485  1   27.18363517     15.6944790992     16.35446487
486  1   30.04507046     15.6944790992     16.35446487
487  1   32.90650574     15.6944790992     16.35446487
488  1   35.76794102     15.6944790992     16.35446487
489  1   17.16861169     18.1725547327     16.35446487
490  1   20.03004697     18.1725547327     16.35446487
491  1   22.89148225     18.1725547327     16.35446487
492  1   25.75291754     18.1725547327     16.35446487
493  1   28.61435282     18.1725547327     16.35446487
494  1   31.47578810     18.1725547327     16.35446487
495  1   34.33722338     18.1725547327     16.35446487
496  1   37.19865866     18.1725547327     16.35446487
497  1   18.59932933     20.6506303863     16.35446487
498  1   21.46076461     20.6506303863     16.35446487
499  1   24.32219990     20.6506303863     16.35446487
500  1   27.18363517     20.6506303863     16.35446487
501  1   30.04507046     20.6506303863     16.35446487
502  1   32.90650574     20.6506303863     16.35446487
503  1   35.76794102     20.6506303863     16.35446487
504  1   38.62937631     20.6506303863     16.35446487
505  1   20.03004697     23.1287060298     16.35446487
506  1   22.89148225     23.1287060298     16.35446487
507  1   25.75291754     23.1287060298     16.35446487
508  1   28.61435282     23.1287060298     16.35446487
509  1   31.47578810     23.1287060298     16.35446487
510  1   34.33722338     23.1287060298     16.35446487
511  1   37.19865866     23.1287060298     16.35446487
512  1   40.06009395     23.1287060298     16.35446487
