ITEM: TIMESTEP
0
ITEM: NUMBER OF ATOMS
512
ITEM: BOX BOUNDS xy xz yz pp pp pp
0.0000000000000000e+00 4.5782964489999998e+01 1.1445741119999999e+01
0.0000000000000000e+00 2.6432806880000001e+01 1.1445741119999999e+01
0.0000000000000000e+00 1.8690816980000001e+01 6.6082017200000003e+00
ITEM: ATOMS id type xs ys zs
1 1 0 0 0
2 1 0.125 0 0
3 1 0.25 0 0
4 1 0.375 0 0
5 1 0.5 0 0
6 1 0.625 0 0
7 1 0.75 0 0
8 1 0.875 0 0
9 1 1 0.125 0
10 1 0.125 0.125 0
11 1 0.25 0.125 0
12 1 0.375 0.125 0
13 1 0.5 0.125 0
14 1 0.625 0.125 0
15 1 0.75 0.125 0
16 1 0.875 0.125 0
17 1 1 0.25 0
18 1 0.125 0.25 0
19 1 0.25 0.25 0
20 1 0.375 0.25 0
21 1 0.5 0.25 0
22 1 0.625 0.25 0
23 1 0.75 0.25 0
24 1 0.875 0.25 0
25 1 1 0.375 0
26 1 0.125 0.375 0
27 1 0.25 0.375 0
28 1 0.375 0.375 0
29 1 0.5 0.375 0
30 1 0.625 0.375 0
31 1 0.75 0.375 0
32 1 0.875 0.375 0
33 1 3.30915e-10 0.5 0
34 1 0.125 0.5 0
35 1 0.25 0.5 0
36 1 0.375 0.5 0
37 1 0.5 0.5 0
38 1 0.625 0.5 0
39 1 0.75 0.5 0
40 1 0.875 0.5 0
41 1 1 0.625 0
42 1 0.125 0.625 0
43 1 0.25 0.625 0
44 1 0.375 0.625 0
45 1 0.5 0.625 0
46 1 0.625 0.625 0
47 1 0.75 0.625 0
48 1 0.875 0.625 0
49 1 1 0.75 0
50 1 0.125 0.75 0
51 1 0.25 0.75 0
52 1 0.375 0.75 0
53 1 0.5 0.75 0
54 1 0.625 0.75 0
55 1 0.75 0.75 0
56 1 0.875 0.75 0
57 1 1.87154e-10 0.875 0
58 1 0.125 0.875 0
59 1 0.25 0.875 0
60 1 0.375 0.875 0
61 1 0.5 0.875 0
62 1 0.625 0.875 0
63 1 0.75 0.875 0
64 1 0.875 0.875 0
65 1 1 6.95292e-10 0.125
66 1 0.125 6.95292e-10 0.125
67 1 0.25 6.95292e-10 0.125
68 1 0.375 6.95292e-10 0.125
69 1 0.5 6.95292e-10 0.125
70 1 0.625 6.95292e-10 0.125
71 1 0.75 6.95292e-10 0.125
72 1 0.875 6.95292e-10 0.125
73 1 9.27557e-12 0.125 0.125
74 1 0.125 0.125 0.125
75 1 0.25 0.125 0.125
76 1 0.375 0.125 0.125
77 1 0.5 0.125 0.125
78 1 0.625 0.125 0.125
79 1 0.75 0.125 0.125
80 1 0.875 0.125 0.125
81 1 1 0.25 0.125
82 1 0.125 0.25 0.125
83 1 0.25 0.25 0.125
84 1 0.375 0.25 0.125
85 1 0.5 0.25 0.125
86 1 0.625 0.25 0.125
87 1 0.75 0.25 0.125
88 1 0.875 0.25 0.125
89 1 2.67049e-10 0.375 0.125
90 1 0.125 0.375 0.125
91 1 0.25 0.375 0.125
92 1 0.375 0.375 0.125
93 1 0.5 0.375 0.125
94 1 0.625 0.375 0.125
95 1 0.75 0.375 0.125
96 1 0.875 0.375 0.125
97 1 1 0.5 0.125
98 1 0.125 0.5 0.125
99 1 0.25 0.5 0.125
100 1 0.375 0.5 0.125
101 1 0.5 0.5 0.125
102 1 0.625 0.5 0.125
103 1 0.75 0.5 0.125
104 1 0.875 0.5 0.125
105 1 1 0.625 0.125
106 1 0.125 0.625 0.125
107 1 0.25 0.625 0.125
108 1 0.375 0.625 0.125
109 1 0.5 0.625 0.125
110 1 0.625 0.625 0.125
111 1 0.75 0.625 0.125
112 1 0.875 0.625 0.125
113 1 1.23288e-10 0.75 0.125
114 1 0.125 0.75 0.125
115 1 0.25 0.75 0.125
116 1 0.375 0.75 0.125
117 1 0.5 0.75 0.125
118 1 0.625 0.75 0.125
119 1 0.75 0.75 0.125
120 1 0.875 0.75 0.125
121 1 4.13332e-10 0.875 0.125
122 1 0.125 0.875 0.125
123 1 0.25 0.875 0.125
124 1 0.375 0.875 0.125
125 1 0.5 0.875 0.125
126 1 0.625 0.875 0.125
127 1 0.75 0.875 0.125
128 1 0.875 0.875 0.125
129 1 1 1.98351e-10 0.25
130 1 0.125 1.98351e-10 0.25
131 1 0.25 1.98351e-10 0.25
132 1 0.375 1.98351e-10 0.25
133 1 0.5 1.98351e-10 0.25
134 1 0.625 1.98351e-10 0.25
135 1 0.75 1.98351e-10 0.25
136 1 0.875 1.98351e-10 0.25
137 1 1 0.125 0.25
138 1 0.125 0.125 0.25
139 1 0.25 0.125 0.25
140 1 0.375 0.125 0.25
141 1 0.5 0.125 0.25
142 1 0.625 0.125 0.25
143 1 0.75 0.125 0.25
144 1 0.875 0.125 0.25
145 1 2.77054e-10 0.25 0.25
146 1 0.125 0.25 0.25
147 1 0.25 0.25 0.25
148 1 0.375 0.25 0.25
149 1 0.5 0.25 0.25
150 1 0.625 0.25 0.25
151 1 0.75 0.25 0.25
152 1 0.875 0.25 0.25
153 1 1 0.375 0.25
154 1 0.125 0.375 0.25
155 1 0.25 0.375 0.25
156 1 0.375 0.375 0.25
157 1 0.5 0.375 0.25
158 1 0.625 0.375 0.25
159 1 0.75 0.375 0.25
160 1 0.875 0.375 0.25
161 1 1 0.5 0.25
162 1 0.125 0.5 0.25
163 1 0.25 0.5 0.25
164 1 0.375 0.5 0.25
165 1 0.5 0.5 0.25
166 1 0.625 0.5 0.25
167 1 0.75 0.5 0.25
168 1 0.875 0.5 0.25
169 1 1.33293e-10 0.625 0.25
170 1 0.125 0.625 0.25
171 1 0.25 0.625 0.25
172 1 0.375 0.625 0.25
173 1 0.5 0.625 0.25
174 1 0.625 0.625 0.25
175 1 0.75 0.625 0.25
176 1 0.875 0.625 0.25
177 1 1.71125e-10 0.75 0.25
178 1 0.125 0.75 0.25
179 1 0.25 0.75 0.25
180 1 0.375 0.75 0.25
181 1 0.5 0.75 0.25
182 1 0.625 0.75 0.25
183 1 0.75 0.75 0.25
184 1 0.875 0.75 0.25
185 1 1 0.875 0.25
186 1 0.125 0.875 0.25
187 1 0.25 0.875 0.25
188 1 0.375 0.875 0.25
189 1 0.5 0.875 0.25
190 1 0.625 0.875 0.25
191 1 0.75 0.875 0.25
192 1 0.875 0.875 0.25
193 1 1 3.89219e-10 0.375
194 1 0.125 3.89219e-10 0.375
195 1 0.25 3.89219e-10 0.375
196 1 0.375 3.89219e-10 0.375
197 1 0.5 3.89219e-10 0.375
198 1 0.625 3.89219e-10 0.375
199 1 0.75 3.89219e-10 0.375
200 1 0.875 3.89219e-10 0.375
201 1 2.13188e-10 0.125 0.375
202 1 0.125 0.125 0.375
203 1 0.25 0.125 0.375
204 1 0.375 0.125 0.375
205 1 0.5 0.125 0.375
206 1 0.625 0.125 0.375
207 1 0.75 0.125 0.375
208 1 0.875 0.125 0.375
209 1 1 0.25 0.375
210 1 0.125 0.25 0.375
211 1 0.25 0.25 0.375
212 1 0.375 0.25 0.375
213 1 0.5 0.25 0.375
214 1 0.625 0.25 0.375
215 1 0.75 0.25 0.375
216 1 0.875 0.25 0.375
217 1 1 0.375 0.375
218 1 0.125 0.375 0.375
219 1 0.25 0.375 0.375
220 1 0.375 0.375 0.375
221 1 0.5 0.375 0.375
222 1 0.625 0.375 0.375
223 1 0.75 0.375 0.375
224 1 0.875 0.375 0.375
225 1 6.94274e-11 0.5 0.375
226 1 0.125 0.5 0.375
227 1 0.25 0.5 0.375
228 1 0.375 0.5 0.375
229 1 0.5 0.5 0.375
230 1 0.625 0.5 0.375
231 1 0.75 0.5 0.375
232 1 0.875 0.5 0.375
233 1 3.59471e-10 0.625 0.375
234 1 0.125 0.625 0.375
235 1 0.25 0.625 0.375
236 1 0.375 0.625 0.375
237 1 0.5 0.625 0.375
238 1 0.625 0.625 0.375
239 1 0.75 0.625 0.375
240 1 0.875 0.625 0.375
241 1 1 0.75 0.375
242 1 0.125 0.75 0.375
243 1 0.25 0.75 0.375
244 1 0.375 0.75 0.375
245 1 0.5 0.75 0.375
246 1 0.625 0.75 0.375
247 1 0.75 0.75 0.375
248 1 0.875 0.75 0.375
249 1 1.804e-10 0.875 0.375
250 1 0.125 0.875 0.375
251 1 0.25 0.875 0.375
252 1 0.375 0.875 0.375
253 1 0.5 0.875 0.375
254 1 0.625 0.875 0.375
255 1 0.75 0.875 0.375
256 1 0.875 0.875 0.375
257 1 4.01534e-10 7.06194e-11 0.5
258 1 0.125 7.06194e-11 0.5
259 1 0.25 7.06194e-11 0.5
260 1 0.375 7.06194e-11 0.5
261 1 0.5 7.06194e-11 0.5
262 1 0.625 7.06194e-11 0.5
263 1 0.75 7.06194e-11 0.5
264 1 0.875 7.06194e-11 0.5
265 1 1 0.125 0.5
266 1 0.125 0.125 0.5
267 1 0.25 0.125 0.5
268 1 0.375 0.125 0.5
269 1 0.5 0.125 0.5
270 1 0.625 0.125 0.5
271 1 0.75 0.125 0.5
272 1 0.875 0.125 0.5
273 1 1 0.25 0.5
274 1 0.125 0.25 0.5
275 1 0.25 0.25 0.5
276 1 0.375 0.25 0.5
277 1 0.5 0.25 0.5
278 1 0.625 0.25 0.5
279 1 0.75 0.25 0.5
280 1 0.875 0.25 0.5
281 1 2.57773e-10 0.375 0.5
282 1 0.125 0.375 0.5
283 1 0.25 0.375 0.5
284 1 0.375 0.375 0.5
285 1 0.5 0.375 0.5
286 1 0.625 0.375 0.5
287 1 0.75 0.375 0.5
288 1 0.875 0.375 0.5
289 1 2.95605e-10 0.5 0.5
290 1 0.125 0.5 0.5
291 1 0.25 0.5 0.5
292 1 0.375 0.5 0.5
293 1 0.5 0.5 0.5
294 1 0.625 0.5 0.5
295 1 0.75 0.5 0.5
296 1 0.875 0.5 0.5
297 1 1 0.625 0.5
298 1 0.125 0.625 0.5
299 1 0.25 0.625 0.5
300 1 0.375 0.625 0.5
301 1 0.5 0.625 0.5
302 1 0.625 0.625 0.5
303 1 0.75 0.625 0.5
304 1 0.875 0.625 0.5
305 1 3.68746e-10 0.75 0.5
306 1 0.125 0.75 0.5
307 1 0.25 0.75 0.5
308 1 0.375 0.75 0.5
309 1 0.5 0.75 0.5
310 1 0.625 0.75 0.5
311 1 0.75 0.75 0.5
312 1 0.875 0.75 0.5
313 1 1.51844e-10 0.875 0.5
314 1 0.125 0.875 0.5
315 1 0.25 0.875 0.5
316 1 0.375 0.875 0.5
317 1 0.5 0.875 0.5
318 1 0.625 0.875 0.5
319 1 0.75 0.875 0.5
320 1 0.875 0.875 0.5
321 1 1 4.0923e-10 0.625
322 1 0.125 4.0923e-10 0.625
323 1 0.25 4.0923e-10 0.625
324 1 0.375 4.0923e-10 0.625
325 1 0.5 4.0923e-10 0.625
326 1 0.625 4.0923e-10 0.625
327 1 0.75 4.0923e-10 0.625
328 1 0.875 4.0923e-10 0.625
329 1 1 0.125 0.625
330 1 0.125 0.125 0.625
331 1 0.25 0.125 0.625
332 1 0.375 0.125 0.625
333 1 0.5 0.125 0.625
334 1 0.625 0.125 0.625
335 1 0.75 0.125 0.625
336 1 0.875 0.125 0.625
337 1 1 0.25 0.625
338 1 0.125 0.25 0.625
339 1 0.25 0.25 0.625
340 1 0.375 0.25 0.625
341 1 0.5 0.25 0.625
342 1 0.625 0.25 0.625
343 1 0.75 0.25 0.625
344 1 0.875 0.25 0.625
345 1 1 0.375 0.625
346 1 0.125 0.375 0.625
347 1 0.25 0.375 0.625
348 1 0.375 0.375 0.625
349 1 0.5 0.375 0.625
350 1 0.625 0.375 0.625
351 1 0.75 0.375 0.625
352 1 0.875 0.375 0.625
353 1 1 0.5 0.625
354 1 0.125 0.5 0.625
355 1 0.25 0.5 0.625
356 1 0.375 0.5 0.625
357 1 0.5 0.5 0.625
358 1 0.625 0.5 0.625
359 1 0.75 0.5 0.625
360 1 0.875 0.5 0.625
361 1 1 0.625 0.625
362 1 0.125 0.625 0.625
363 1 0.25 0.625 0.625
364 1 0.375 0.625 0.625
365 1 0.5 0.625 0.625
366 1 0.625 0.625 0.625
367 1 0.75 0.625 0.625
368 1 0.875 0.625 0.625
369 1 1 0.75 0.625
370 1 0.125 0.75 0.625
371 1 0.25 0.75 0.625
372 1 0.375 0.75 0.625
373 1 0.5 0.75 0.625
374 1 0.625 0.75 0.625
375 1 0.75 0.75 0.625
376 1 0.875 0.75 0.625
377 1 2.13406e-11 0.875 0.625
378 1 0.125 0.875 0.625
379 1 0.25 0.875 0.625
380 1 0.375 0.875 0.625
381 1 0.5 0.875 0.625
382 1 0.625 0.875 0.625
383 1 0.75 0.875 0.625
384 1 0.875 0.875 0.625
385 1 1 9.06298e-11 0.75
386 1 0.125 9.06298e-11 0.75
387 1 0.25 9.06298e-11 0.75
388 1 0.375 9.06298e-11 0.75
389 1 0.5 9.06298e-11 0.75
390 1 0.625 9.06298e-11 0.75
391 1 0.75 9.06298e-11 0.75
392 1 0.875 9.06298e-11 0.75
393 1 2.5572e-11 0.125 0.75
394 1 0.125 0.125 0.75
395 1 0.25 0.125 0.75
396 1 0.375 0.125 0.75
397 1 0.5 0.125 0.75
398 1 0.625 0.125 0.75
399 1 0.75 0.125 0.75
400 1 0.875 0.125 0.75
401 1 6.34037e-11 0.25 0.75
402 1 0.125 0.25 0.75
403 1 0.25 0.25 0.75
404 1 0.375 0.25 0.75
405 1 0.5 0.25 0.75
406 1 0.625 0.25 0.75
407 1 0.75 0.25 0.75
408 1 0.875 0.25 0.75
409 1 1 0.375 0.75
410 1 0.125 0.375 0.75
411 1 0.25 0.375 0.75
412 1 0.375 0.375 0.75
413 1 0.5 0.375 0.75
414 1 0.625 0.375 0.75
415 1 0.75 0.375 0.75
416 1 0.875 0.375 0.75
417 1 1.36545e-10 0.5 0.75
418 1 0.125 0.5 0.75
419 1 0.25 0.5 0.75
420 1 0.375 0.5 0.75
421 1 0.5 0.5 0.75
422 1 0.625 0.5 0.75
423 1 0.75 0.5 0.75
424 1 0.875 0.5 0.75
425 1 1 0.625 0.75
426 1 0.125 0.625 0.75
427 1 0.25 0.625 0.75
428 1 0.375 0.625 0.75
429 1 0.5 0.625 0.75
430 1 0.625 0.625 0.75
431 1 0.75 0.625 0.75
432 1 0.875 0.625 0.75
433 1 1 0.75 0.75
434 1 0.125 0.75 0.75
435 1 0.25 0.75 0.75
436 1 0.375 0.75 0.75
437 1 0.5 0.75 0.75
438 1 0.625 0.75 0.75
439 1 0.75 0.75 0.75
440 1 0.875 0.75 0.75
441 1 1 0.875 0.75
442 1 0.125 0.875 0.75
443 1 0.25 0.875 0.75
444 1 0.375 0.875 0.75
445 1 0.5 0.875 0.75
446 1 0.625 0.875 0.75
447 1 0.75 0.875 0.75
448 1 0.875 0.875 0.75
449 1 1 2.81498e-10 0.875
450 1 0.125 2.81498e-10 0.875
451 1 0.25 2.81498e-10 0.875
452 1 0.375 2.81498e-10 0.875
453 1 0.5 2.81498e-10 0.875
454 1 0.625 2.81498e-10 0.875
455 1 0.75 2.81498e-10 0.875
456 1 0.875 2.81498e-10 0.875
457 1 1 0.125 0.875
458 1 0.125 0.125 0.875
459 1 0.25 0.125 0.875
460 1 0.375 0.125 0.875
461 1 0.5 0.125 0.875
462 1 0.625 0.125 0.875
463 1 0.75 0.125 0.875
464 1 0.875 0.125 0.875
465 1 1 0.25 0.875
466 1 0.125 0.25 0.875
467 1 0.25 0.25 0.875
468 1 0.375 0.25 0.875
469 1 0.5 0.25 0.875
470 1 0.625 0.25 0.875
471 1 0.75 0.25 0.875
472 1 0.875 0.25 0.875
473 1 7.26793e-11 0.375 0.875
474 1 0.125 0.375 0.875
475 1 0.25 0.375 0.875
476 1 0.375 0.375 0.875
477 1 0.5 0.375 0.875
478 1 0.625 0.375 0.875
479 1 0.75 0.375 0.875
480 1 0.875 0.375 0.875
481 1 1 0.5 0.875
482 1 0.125 0.5 0.875
483 1 0.25 0.5 0.875
484 1 0.375 0.5 0.875
485 1 0.5 0.5 0.875
486 1 0.625 0.5 0.875
487 1 0.75 0.5 0.875
488 1 0.875 0.5 0.875
489 1 1.45821e-10 0.625 0.875
490 1 0.125 0.625 0.875
491 1 0.25 0.625 0.875
492 1 0.375 0.625 0.875
493 1 0.5 0.625 0.875
494 1 0.625 0.625 0.875
495 1 0.75 0.625 0.875
496 1 0.875 0.625 0.875
497 1 1 0.75 0.875
498 1 0.125 0.75 0.875
499 1 0.25 0.75 0.875
500 1 0.375 0.75 0.875
501 1 0.5 0.75 0.875
502 1 0.625 0.75 0.875
503 1 0.75 0.75 0.875
504 1 0.875 0.75 0.875
505 1 1 0.875 0.875
506 1 0.125 0.875 0.875
507 1 0.25 0.875 0.875
508 1 0.375 0.875 0.875
509 1 0.5 0.875 0.875
510 1 0.625 0.875 0.875
511 1 0.75 0.875 0.875
512 1 0.875 0.875 0.875
ITEM: TIMESTEP
50000
ITEM: NUMBER OF ATOMS
512
ITEM: BOX BOUNDS xy xz yz pp pp pp
-2.9887752896046393e-02 4.5872627748661444e+01 1.1475628872882700e+01
-2.5883553271363269e-02 2.6475946135453384e+01 1.1475628872882700e+01
-2.4403248039133629e-02 1.8715220228038959e+01 6.6254574221809790e+00
ITEM: ATOMS id type xs ys zs
1 1 0.0119758 0.00242577 -0.00741773
2 1 0.130278 0.00446019 0.00201117
3 1 0.256467 -0.00328103 0.00184401
4 1 0.375271 0.0023182 -0.00167336
5 1 0.49748 0.0118965 -0.0105493
6 1 0.620024 0.00301921 -0.00271694
7 1 0.752007 0.00487286 -0.00231519
8 1 0.877417 3.47517e-05 0.00210015
9 1 1.00332 0.122713 -0.000687356
10 1 0.130423 0.12889 -0.00444294
11 1 0.246284 0.125896 0.00213951
12 1 0.371184 0.127699 -0.00265005
13 1 0.504124 0.122144 0.00227312
14 1 0.628078 0.11889 0.00653097
15 1 0.751184 0.125616 0.000542081
16 1 0.877939 0.114699 0.00483804
17 1 0.99816 0.242015 0.00520338
18 1 0.117654 0.255549 0.00347329
19 1 0.245984 0.251267 0.00209687
20 1 0.38129 0.247286 -0.000825302
21 1 0.497368 0.246194 0.00307909
22 1 0.619725 0.24691 0.00842007
23 1 0.755438 0.247243 -0.00344775
24 1 0.874271 0.246836 0.00022373
25 1 1.00092 0.37569 0.006273
26 1 0.119611 0.373916 0.00953929
27 1 0.2478 0.37208 0.00374821
28 1 0.378971 0.376588 -0.00111463
29 1 0.503861 0.365436 0.00102957
30 1 0.621872 0.37187 0.00579031
31 1 0.744273 0.363237 0.0104636
32 1 0.876968 0.364688 -0.00343849
33 1 0.00736189 0.501716 -0.0057852
34 1 0.130249 0.508531 -0.00564403
35 1 0.248148 0.50048 0.00357165
36 1 0.378651 0.494229 0.000283903
37 1 0.501026 0.495717 -0.00228841
38 1 0.625977 0.489687 0.00795579
39 1 0.745734 0.501783 0.000906295
40 1 0.874032 0.497539 -0.000224239
41 1 0.998407 0.635658 -0.00833183
42 1 0.118117 0.629546 0.00202798
43 1 0.256702 0.616984 0.001576
44 1 0.385698 0.620557 -0.00216385
45 1 0.501347 0.61561 0.00657715
46 1 0.620911 0.62718 0.0030077
47 1 0.750745 0.622299 0.000376158
48 1 0.87499 0.637693 -0.00501782
49 1 0.999547 0.754112 0.00178938
50 1 0.13098 0.752753 -0.000181305
51 1 0.261555 0.742618 0.000921795
52 1 0.3796 0.742785 0.0077814
53 1 0.499797 0.750811 0.00833889
54 1 0.623906 0.75869 -0.015926
55 1 0.748847 0.73961 0.0027906
56 1 0.872692 0.756623 0.00151517
57 1 0.00797392 0.880389 -0.000149984
58 1 0.133329 0.869336 0.00517677
59 1 0.253483 0.861708 0.00774478
60 1 0.374884 0.876914 -0.00768566
61 1 0.500222 0.884341 -0.000845472
62 1 0.620501 0.878291 0.00117193
63 1 0.744011 0.878281 0.0020087
64 1 0.8789 0.880547 -0.0015404
65 1 1.00647 0.00717265 0.122803
66 1 0.129871 0.00496252 0.122518
67 1 0.249769 0.00398312 0.124167
68 1 0.366629 0.00411708 0.1343
69 1 0.496054 0.00299162 0.126106
70 1 0.628216 -0.000939064 0.1205
71 1 0.747967 0.00171817 0.128694
72 1 0.887916 0.000130826 0.126782
73 1 0.00894224 0.129892 0.1204
74 1 0.129485 0.13168 0.121744
75 1 0.248792 0.124891 0.133136
76 1 0.3838 0.120655 0.12608
77 1 0.510996 0.118319 0.126632
78 1 0.628737 0.127162 0.124976
79 1 0.760807 0.121773 0.123661
80 1 0.878931 0.1222 0.128431
81 1 0.991914 0.24595 0.135078
82 1 0.13095 0.252591 0.12656
83 1 0.261719 0.23891 0.131132
84 1 0.382235 0.25187 0.118215
85 1 0.502797 0.236104 0.13182
86 1 0.620184 0.25257 0.123928
87 1 0.743293 0.244248 0.126586
88 1 0.877376 0.238162 0.122991
89 1 -0.0108416 0.374789 0.13531
90 1 0.123643 0.371037 0.128597
91 1 0.248466 0.369121 0.125827
92 1 0.37967 0.37292 0.117664
93 1 0.501944 0.377532 0.125889
94 1 0.62356 0.37427 0.133828
95 1 0.755336 0.374687 0.121072
96 1 0.875262 0.374789 0.119978
97 1 1.0086 0.49076 0.12133
98 1 0.127283 0.492534 0.12343
99 1 0.252345 0.49498 0.124137
100 1 0.380538 0.506147 0.122693
101 1 0.496801 0.50221 0.124441
102 1 0.621104 0.501596 0.126485
103 1 0.745378 0.501078 0.132472
104 1 0.87964 0.505649 0.122763
105 1 1.00459 0.629472 0.122016
106 1 0.139637 0.615314 0.123336
107 1 0.261884 0.626232 0.122966
108 1 0.365778 0.631034 0.135937
109 1 0.491726 0.626911 0.129227
110 1 0.622507 0.637079 0.114159
111 1 0.751337 0.620356 0.130852
112 1 0.87671 0.621743 0.126787
113 1 0.0105489 0.74194 0.1256
114 1 0.130257 0.748704 0.121598
115 1 0.240967 0.752301 0.135876
116 1 0.374734 0.750285 0.133336
117 1 0.503339 0.762514 0.120372
118 1 0.616348 0.757218 0.128246
119 1 0.747088 0.751898 0.123885
120 1 0.877269 0.737946 0.130244
121 1 0.00792263 0.878919 0.120174
122 1 0.130626 0.883214 0.117437
123 1 0.246759 0.880774 0.128365
124 1 0.371423 0.882866 0.11864
125 1 0.489486 0.890233 0.122006
126 1 0.622787 0.875066 0.116368
127 1 0.751238 0.874644 0.126616
128 1 0.877123 0.886417 0.118445
129 1 1.00577 -0.00110181 0.250374
130 1 0.120366 0.00205921 0.249706
131 1 0.247904 -0.00445964 0.257947
132 1 0.377639 -0.00373645 0.254361
133 1 0.500361 0.00373063 0.24473
134 1 0.625383 0.00331171 0.252598
135 1 0.750555 0.00415303 0.247307
136 1 0.87796 -0.00622797 0.250071
137 1 1.00396 0.115915 0.256023
138 1 0.132452 0.127004 0.252362
139 1 0.253946 0.12432 0.250734
140 1 0.379128 0.121788 0.244409
141 1 0.505991 0.119649 0.255486
142 1 0.62781 0.127943 0.24686
143 1 0.751195 0.118914 0.254793
144 1 0.884376 0.113457 0.250494
145 1 0.00967292 0.241804 0.252818
146 1 0.126927 0.250703 0.251817
147 1 0.262907 0.246256 0.245897
148 1 0.380673 0.257017 0.23705
149 1 0.499509 0.253639 0.25173
150 1 0.626197 0.253394 0.245421
151 1 0.745312 0.247317 0.253794
152 1 0.868623 0.255693 0.249737
153 1 0.994391 0.370808 0.252069
154 1 0.130541 0.369741 0.247913
155 1 0.250802 0.374439 0.254495
156 1 0.37633 0.380874 0.243337
157 1 0.497298 0.374254 0.25602
158 1 0.627904 0.374051 0.248686
159 1 0.746468 0.381842 0.246234
160 1 0.86919 0.374076 0.252863
161 1 0.998621 0.498599 0.247178
162 1 0.118491 0.50206 0.249396
163 1 0.250458 0.498278 0.247379
164 1 0.360884 0.499393 0.265144
165 1 0.499048 0.492349 0.253278
166 1 0.621781 0.501546 0.245889
167 1 0.747536 0.499377 0.25557
168 1 0.870691 0.498897 0.250113
169 1 0.0075705 0.626619 0.249061
170 1 0.132947 0.623401 0.243276
171 1 0.252546 0.618467 0.254815
172 1 0.37148 0.629644 0.259947
173 1 0.491697 0.624318 0.258458
174 1 0.61597 0.632586 0.244279
175 1 0.747417 0.626136 0.254122
176 1 0.868568 0.621737 0.259204
177 1 0.00331862 0.753634 0.239751
178 1 0.11394 0.757549 0.248028
179 1 0.256571 0.749421 0.259422
180 1 0.375278 0.742241 0.258223
181 1 0.500128 0.755379 0.242594
182 1 0.626469 0.748967 0.248742
183 1 0.748982 0.749285 0.254528
184 1 0.873675 0.742502 0.253197
185 1 0.99237 0.88059 0.249003
186 1 0.120083 0.877349 0.25289
187 1 0.260372 0.871146 0.252024
188 1 0.382589 0.872434 0.245771
189 1 0.498294 0.869974 0.253824
190 1 0.62727 0.868676 0.24107
191 1 0.753143 0.878805 0.249765
192 1 0.879361 0.865974 0.252245
193 1 1.00487 -0.0004308 0.375846
194 1 0.12491 0.00535746 0.377013
195 1 0.257224 -0.00114264 0.380513
196 1 0.375289 -0.00356756 0.38145
197 1 0.498253 0.00321405 0.380129
198 1 0.619617 0.000516992 0.382361
199 1 0.749797 0.00509689 0.370193
200 1 0.876573 0.00129889 0.371278
201 1 0.0130586 0.12045 0.373943
202 1 0.131053 0.122964 0.376058
203 1 0.25553 0.131782 0.376371
204 1 0.380711 0.133926 0.370347
205 1 0.49876 0.123278 0.384396
206 1 0.628184 0.133333 0.368394
207 1 0.760131 0.122893 0.379314
208 1 0.885932 0.121515 0.367048
209 1 1.00504 0.244963 0.375014
210 1 0.125341 0.249097 0.371292
211 1 0.254995 0.249201 0.37296
212 1 0.372438 0.248239 0.380762
213 1 0.507494 0.251392 0.36419
214 1 0.633906 0.24443 0.377605
215 1 0.746732 0.243438 0.383914
216 1 0.880717 0.246315 0.365805
217 1 0.997071 0.383311 0.36414
218 1 0.114596 0.386652 0.37288
219 1 0.242597 0.378067 0.382536
220 1 0.370295 0.375464 0.378047
221 1 0.490714 0.378603 0.377994
222 1 0.626109 0.372983 0.370181
223 1 0.746261 0.372597 0.368451
224 1 0.873517 0.364032 0.374827
225 1 -0.00649877 0.500512 0.373411
226 1 0.1204 0.504193 0.370008
227 1 0.236508 0.504712 0.381986
228 1 0.370583 0.496532 0.376413
229 1 0.490302 0.496935 0.382115
230 1 0.620862 0.505339 0.371799
231 1 0.750085 0.50426 0.369892
232 1 0.869266 0.496161 0.37652
233 1 -0.0012486 0.622687 0.375905
234 1 0.121841 0.628537 0.375736
235 1 0.246923 0.625324 0.375009
236 1 0.3634 0.625418 0.385232
237 1 0.494925 0.62846 0.374269
238 1 0.617145 0.628861 0.373127
239 1 0.74324 0.625727 0.37464
240 1 0.879065 0.619491 0.370456
241 1 0.991612 0.749545 0.378457
242 1 0.124162 0.752972 0.374585
243 1 0.243032 0.758265 0.38141
244 1 0.373493 0.748167 0.379064
245 1 0.500822 0.753745 0.375954
246 1 0.62143 0.754964 0.365149
247 1 0.74992 0.751926 0.369943
248 1 0.874688 0.748363 0.381456
249 1 -0.00384356 0.872839 0.370891
250 1 0.117064 0.883095 0.372234
251 1 0.252319 0.884955 0.378211
252 1 0.379364 0.872693 0.377976
253 1 0.507462 0.876799 0.365987
254 1 0.620149 0.876542 0.375176
255 1 0.746776 0.878485 0.374273
256 1 0.874145 0.875478 0.369991
257 1 -0.0087763 -0.00355419 0.512853
258 1 0.130217 -0.00910777 0.507546
259 1 0.247728 0.00434531 0.501068
260 1 0.376174 0.00227024 0.498516
261 1 0.49494 0.00321076 0.50401
262 1 0.624738 -0.000419807 0.497052
263 1 0.754492 -0.00855309 0.500056
264 1 0.881206 0.00620056 0.481083
265 1 1.00898 0.114963 0.499484
266 1 0.133979 0.122512 0.502708
267 1 0.248993 0.128233 0.504782
268 1 0.372576 0.128554 0.50568
269 1 0.503061 0.121001 0.505387
270 1 0.635471 0.124072 0.494334
271 1 0.749146 0.114288 0.508165
272 1 0.877978 0.126153 0.495978
273 1 1.00764 0.250887 0.497955
274 1 0.12545 0.257796 0.500027
275 1 0.250037 0.251102 0.49821
276 1 0.377051 0.254602 0.492937
277 1 0.497574 0.250369 0.495782
278 1 0.623584 0.256017 0.500653
279 1 0.753642 0.248663 0.497588
280 1 0.882797 0.2345 0.502169
281 1 -0.00960575 0.379276 0.502709
282 1 0.12663 0.379294 0.495498
283 1 0.245757 0.369472 0.507829
284 1 0.375871 0.376014 0.499605
285 1 0.498104 0.374824 0.499887
286 1 0.632872 0.374457 0.495121
287 1 0.747777 0.379057 0.497473
288 1 0.877883 0.369323 0.497976
289 1 0.000136917 0.503858 0.493457
290 1 0.120925 0.498795 0.500047
291 1 0.250072 0.503485 0.494292
292 1 0.380011 0.49475 0.500729
293 1 0.495905 0.496954 0.499793
294 1 0.612583 0.509228 0.500289
295 1 0.739782 0.498311 0.498722
296 1 0.867118 0.505061 0.493332
297 1 0.995321 0.625636 0.502602
298 1 0.117022 0.626079 0.506216
299 1 0.237264 0.634687 0.499695
300 1 0.372833 0.623765 0.497719
301 1 0.49229 0.624991 0.496495
302 1 0.616055 0.631129 0.496209
303 1 0.742894 0.618792 0.499106
304 1 0.884049 0.619201 0.494805
305 1 0.000226606 0.74912 0.497189
306 1 0.120215 0.757054 0.493406
307 1 0.248425 0.739459 0.505491
308 1 0.367294 0.752013 0.497262
309 1 0.494947 0.754478 0.492583
310 1 0.615908 0.751675 0.50492
311 1 0.753033 0.737799 0.501844
312 1 0.876504 0.744656 0.497037
313 1 0.00269634 0.879038 0.491498
314 1 0.123981 0.874965 0.504572
315 1 0.253574 0.867461 0.507116
316 1 0.366448 0.879074 0.507371
317 1 0.491482 0.877151 0.502301
318 1 0.628244 0.869979 0.506822
319 1 0.751281 0.867104 0.499026
320 1 0.875059 0.873159 0.492625
321 1 0.998734 -0.00644725 0.630912
322 1 0.120195 -0.000617086 0.631655
323 1 0.24576 0.00536039 0.632189
324 1 0.376959 -0.00046339 0.627107
325 1 0.507757 0.00503325 0.620313
326 1 0.635053 -0.000623202 0.614417
327 1 0.748568 -0.00400165 0.620992
328 1 0.867887 0.00501857 0.608678
329 1 1.00356 0.119921 0.619629
330 1 0.118195 0.138446 0.622475
331 1 0.245804 0.124713 0.631914
332 1 0.377186 0.125247 0.623972
333 1 0.493303 0.126971 0.630359
334 1 0.621193 0.12749 0.620423
335 1 0.74357 0.131449 0.624859
336 1 0.875807 0.119554 0.621137
337 1 1.00158 0.25062 0.629909
338 1 0.126616 0.255212 0.619571
339 1 0.246478 0.246809 0.630339
340 1 0.370115 0.253861 0.623438
341 1 0.493953 0.253126 0.626478
342 1 0.621526 0.253326 0.626066
343 1 0.751672 0.246491 0.62106
344 1 0.884235 0.248709 0.623324
345 1 1.00399 0.381335 0.614624
346 1 0.122045 0.377591 0.63116
347 1 0.246541 0.371945 0.624938
348 1 0.378726 0.373268 0.623251
349 1 0.500605 0.378581 0.615954
350 1 0.628341 0.374951 0.620361
351 1 0.754443 0.368036 0.623509
352 1 0.874655 0.366648 0.627406
353 1 1 0.501148 0.624652
354 1 0.128588 0.490693 0.625988
355 1 0.250159 0.497724 0.619906
356 1 0.371593 0.496965 0.626287
357 1 0.501783 0.494349 0.625198
358 1 0.627352 0.502149 0.623609
359 1 0.753424 0.496873 0.62408
360 1 0.884876 0.496451 0.617548
361 1 0.996546 0.624937 0.628723
362 1 0.126788 0.617321 0.625044
363 1 0.243265 0.622814 0.620695
364 1 0.377588 0.622848 0.620067
365 1 0.500556 0.618749 0.617049
366 1 0.619956 0.626343 0.624954
367 1 0.738329 0.628185 0.621235
368 1 0.863638 0.623741 0.627405
369 1 1.00882 0.749811 0.615984
370 1 0.119079 0.751579 0.629663
371 1 0.249066 0.754549 0.629214
372 1 0.371484 0.750791 0.62103
373 1 0.498409 0.742258 0.622196
374 1 0.626091 0.751681 0.61989
375 1 0.744783 0.751673 0.628195
376 1 0.876518 0.751601 0.616028
377 1 -0.00548002 0.868403 0.635127
378 1 0.121082 0.874139 0.630412
379 1 0.24467 0.881839 0.630794
380 1 0.379033 0.860024 0.634795
381 1 0.498776 0.873292 0.620608
382 1 0.620832 0.874138 0.629104
383 1 0.754116 0.874531 0.614329
384 1 0.881016 0.874304 0.612857
385 1 0.993181 0.00507641 0.759166
386 1 0.117068 0.00206197 0.753007
387 1 0.246555 0.00327771 0.757179
388 1 0.386215 0.00160469 0.7433
389 1 0.494245 -0.00121872 0.748272
390 1 0.621503 0.0082831 0.747533
391 1 0.741709 0.000324454 0.755554
392 1 0.876911 0.000117445 0.737122
393 1 -0.00531137 0.136498 0.751646
394 1 0.124877 0.133742 0.74548
395 1 0.253685 0.114492 0.752031
396 1 0.374641 0.1295 0.747884
397 1 0.4909 0.134217 0.756188
398 1 0.627013 0.130727 0.747745
399 1 0.757532 0.126655 0.740346
400 1 0.874996 0.123226 0.745708
401 1 0.00456803 0.25639 0.742084
402 1 0.13187 0.248046 0.751509
403 1 0.247309 0.255835 0.749207
404 1 0.371815 0.257198 0.746639
405 1 0.507037 0.250282 0.747296
406 1 0.630157 0.24875 0.750687
407 1 0.754803 0.248524 0.746185
408 1 0.881222 0.250762 0.75394
409 1 0.996173 0.373185 0.753009
410 1 0.129721 0.375681 0.742879
411 1 0.245234 0.373567 0.750513
412 1 0.373643 0.373857 0.751106
413 1 0.499435 0.380861 0.747988
414 1 0.629618 0.369005 0.744666
415 1 0.748906 0.364637 0.75439
416 1 0.873035 0.373167 0.75227
417 1 -0.00984702 0.506656 0.753502
418 1 0.122043 0.48911 0.757622
419 1 0.24262 0.501415 0.752385
420 1 0.364169 0.511745 0.744773
421 1 0.498157 0.496621 0.742501
422 1 0.624113 0.495761 0.754081
423 1 0.748809 0.503562 0.74748
424 1 0.87413 0.508281 0.747946
425 1 1.00948 0.619964 0.745865
426 1 0.121934 0.62553 0.758127
427 1 0.250077 0.620523 0.752967
428 1 0.37749 0.624743 0.739485
429 1 0.497999 0.619383 0.759183
430 1 0.618364 0.630601 0.748475
431 1 0.746499 0.621785 0.755337
432 1 0.875529 0.626219 0.749195
433 1 0.990765 0.746861 0.749574
434 1 0.114512 0.75216 0.761886
435 1 0.244581 0.757967 0.750777
436 1 0.374908 0.746301 0.756872
437 1 0.50338 0.751453 0.743121
438 1 0.624702 0.741399 0.755859
439 1 0.763308 0.743245 0.741195
440 1 0.879873 0.750367 0.742225
441 1 1.00129 0.872403 0.750379
442 1 0.12345 0.878956 0.754855
443 1 0.245236 0.878242 0.755045
444 1 0.373096 0.873051 0.755002
445 1 0.507101 0.870448 0.74947
446 1 0.635572 0.876501 0.737568
447 1 0.75334 0.866488 0.748682
448 1 0.867195 0.875315 0.752226
449 1 1.00408 0.00439091 0.875871
450 1 0.133047 0.00585476 0.873762
451 1 0.252068 0.00153572 0.880298
452 1 0.373858 0.0124958 0.864988
453 1 0.501178 0.00275639 0.868349
454 1 0.626773 0.00626236 0.863773
455 1 0.743273 -0.00570577 0.881751
456 1 0.868086 0.00244641 0.877026
457 1 1.00465 0.13729 0.862765
458 1 0.120342 0.128174 0.879689
459 1 0.240835 0.135759 0.869041
460 1 0.371866 0.123835 0.871534
461 1 0.503952 0.129016 0.875431
462 1 0.634747 0.122169 0.874257
463 1 0.753273 0.119967 0.879814
464 1 0.873699 0.124856 0.878194
465 1 0.996052 0.25656 0.86991
466 1 0.128482 0.251581 0.866074
467 1 0.242666 0.247613 0.880323
468 1 0.375649 0.243595 0.880808
469 1 0.50254 0.25398 0.871952
470 1 0.61967 0.246665 0.877861
471 1 0.751638 0.245266 0.873692
472 1 0.878805 0.248017 0.872453
473 1 -0.00211813 0.372418 0.871731
474 1 0.123368 0.367468 0.881601
475 1 0.244241 0.375573 0.88059
476 1 0.371779 0.371352 0.880606
477 1 0.510743 0.368663 0.873138
478 1 0.632582 0.364219 0.878995
479 1 0.744267 0.378884 0.873217
480 1 0.872292 0.383781 0.867643
481 1 0.998683 0.494613 0.871382
482 1 0.116458 0.502794 0.871832
483 1 0.250614 0.503811 0.869811
484 1 0.374304 0.50262 0.875155
485 1 0.505554 0.493172 0.877535
486 1 0.616851 0.505363 0.878315
487 1 0.748979 0.497424 0.882995
488 1 0.868708 0.50338 0.874918
489 1 -0.00367057 0.627447 0.874107
490 1 0.119635 0.632417 0.874768
491 1 0.255269 0.625067 0.870166
492 1 0.385934 0.618872 0.874891
493 1 0.504108 0.629961 0.876239
494 1 0.633098 0.619304 0.876633
495 1 0.746699 0.631934 0.872881
496 1 0.872538 0.62887 0.868758
497 1 0.993819 0.751891 0.883886
498 1 0.123847 0.749309 0.873149
499 1 0.24149 0.753792 0.876755
500 1 0.376776 0.747357 0.882446
501 1 0.497621 0.740929 0.896506
502 1 0.635677 0.752718 0.864142
503 1 0.754105 0.75072 0.874611
504 1 0.876793 0.753195 0.872759
505 1 1.00469 0.871706 0.876206
506 1 0.126199 0.879856 0.876424
507 1 0.2522 0.870461 0.886166
508 1 0.383593 0.868334 0.876757
509 1 0.512764 0.869065 0.871992
510 1 0.626251 0.88433 0.866774