ITEM: TIMESTEP
0
ITEM: NUMBER OF ATOMS
512
ITEM: BOX BOUNDS xy xz yz pp pp pp
0.0000000000000000e+00 4.0899056209999998e+01 1.0224764049999999e+01
0.0000000000000000e+00 2.3613081120000000e+01 1.0224764049999999e+01
0.0000000000000000e+00 1.6696969780000000e+01 5.9032702800000001e+00
ITEM: ATOMS id type xs ys zs
1 1 0 0 0
2 1 0.125 0 0
3 1 0.25 0 0
4 1 0.375 0 0
5 1 0.5 0 0
6 1 0.625 0 0
7 1 0.75 0 0
8 1 0.875 0 0
9 1 4.22136e-11 0.125 0
10 1 0.125 0.125 0
11 1 0.25 0.125 0
12 1 0.375 0.125 0
13 1 0.5 0.125 0
14 1 0.625 0.125 0
15 1 0.75 0.125 0
16 1 0.875 0.125 0
17 1 1 0.25 0
18 1 0.125 0.25 0
19 1 0.25 0.25 0
20 1 0.375 0.25 0
21 1 0.5 0.25 0
22 1 0.625 0.25 0
23 1 0.75 0.25 0
24 1 0.875 0.25 0
25 1 1 0.375 0
26 1 0.125 0.375 0
27 1 0.25 0.375 0
28 1 0.375 0.375 0
29 1 0.5 0.375 0
30 1 0.625 0.375 0
31 1 0.75 0.375 0
32 1 0.875 0.375 0
33 1 2.44504e-10 0.5 0
34 1 0.125 0.5 0
35 1 0.25 0.5 0
36 1 0.375 0.5 0
37 1 0.5 0.5 0
38 1 0.625 0.5 0
39 1 0.75 0.5 0
40 1 0.875 0.5 0
41 1 1 0.625 0
42 1 0.125 0.625 0
43 1 0.25 0.625 0
44 1 0.375 0.625 0
45 1 0.5 0.625 0
46 1 0.625 0.625 0
47 1 0.75 0.625 0
48 1 0.875 0.625 0
49 1 1.22252e-10 0.75 0
50 1 0.125 0.75 0
51 1 0.25 0.75 0
52 1 0.375 0.75 0
53 1 0.5 0.75 0
54 1 0.625 0.75 0
55 1 0.75 0.75 0
56 1 0.875 0.75 0
57 1 1.64466e-10 0.875 0
58 1 0.125 0.875 0
59 1 0.25 0.875 0
60 1 0.375 0.875 0
61 1 0.5 0.875 0
62 1 0.625 0.875 0
63 1 0.75 0.875 0
64 1 0.875 0.875 0
65 1 9.21228e-11 3.32239e-10 0.125
66 1 0.125 3.32239e-10 0.125
67 1 0.25 3.32239e-10 0.125
68 1 0.375 3.32239e-10 0.125
69 1 0.5 3.32239e-10 0.125
70 1 0.625 3.32239e-10 0.125
71 1 0.75 3.32239e-10 0.125
72 1 0.875 3.32239e-10 0.125
73 1 1 0.125 0.125
74 1 0.125 0.125 0.125
75 1 0.25 0.125 0.125
76 1 0.375 0.125 0.125
77 1 0.5 0.125 0.125
78 1 0.625 0.125 0.125
79 1 0.75 0.125 0.125
80 1 0.875 0.125 0.125
81 1 1 0.25 0.125
82 1 0.125 0.25 0.125
83 1 0.25 0.25 0.125
84 1 0.375 0.25 0.125
85 1 0.5 0.25 0.125
86 1 0.625 0.25 0.125
87 1 0.75 0.25 0.125
88 1 0.875 0.25 0.125
89 1 2.94414e-10 0.375 0.125
90 1 0.125 0.375 0.125
91 1 0.25 0.375 0.125
92 1 0.375 0.375 0.125
93 1 0.5 0.375 0.125
94 1 0.625 0.375 0.125
95 1 0.75 0.375 0.125
96 1 0.875 0.375 0.125
97 1 1 0.5 0.125
98 1 0.125 0.5 0.125
99 1 0.25 0.5 0.125
100 1 0.375 0.5 0.125
101 1 0.5 0.5 0.125
102 1 0.625 0.5 0.125
103 1 0.75 0.5 0.125
104 1 0.875 0.5 0.125
105 1 1.72161e-10 0.625 0.125
106 1 0.125 0.625 0.125
107 1 0.25 0.625 0.125
108 1 0.375 0.625 0.125
109 1 0.5 0.625 0.125
110 1 0.625 0.625 0.125
111 1 0.75 0.625 0.125
112 1 0.875 0.625 0.125
113 1 2.14375e-10 0.75 0.125
114 1 0.125 0.75 0.125
115 1 0.25 0.75 0.125
116 1 0.375 0.75 0.125
117 1 0.5 0.75 0.125
118 1 0.625 0.75 0.125
119 1 0.75 0.75 0.125
120 1 0.875 0.75 0.125
121 1 5.38918e-10 0.875 0.125
122 1 0.125 0.875 0.125
123 1 0.25 0.875 0.125
124 1 0.375 0.875 0.125
125 1 0.5 0.875 0.125
126 1 0.625 0.875 0.125
127 1 0.75 0.875 0.125
128 1 0.875 0.875 0.125
129 1 1 1 0.25
130 1 0.125 1 0.25
131 1 0.25 1 0.25
132 1 0.375 1 0.25
133 1 0.5 1 0.25
134 1 0.625 1 0.25
135 1 0.75 1 0.25
136 1 0.875 1 0.25
137 1 1 0.125 0.25
138 1 0.125 0.125 0.25
139 1 0.25 0.125 0.25
140 1 0.375 0.125 0.25
141 1 0.5 0.125 0.25
142 1 0.625 0.125 0.25
143 1 0.75 0.125 0.25
144 1 0.875 0.125 0.25
145 1 1.44686e-10 0.25 0.25
146 1 0.125 0.25 0.25
147 1 0.25 0.25 0.25
148 1 0.375 0.25 0.25
149 1 0.5 0.25 0.25
150 1 0.625 0.25 0.25
151 1 0.75 0.25 0.25
152 1 0.875 0.25 0.25
153 1 1 0.375 0.25
154 1 0.125 0.375 0.25
155 1 0.25 0.375 0.25
156 1 0.375 0.375 0.25
157 1 0.5 0.375 0.25
158 1 0.625 0.375 0.25
159 1 0.75 0.375 0.25
160 1 0.875 0.375 0.25
161 1 2.24337e-11 0.5 0.25
162 1 0.125 0.5 0.25
163 1 0.25 0.5 0.25
164 1 0.375 0.5 0.25
165 1 0.5 0.5 0.25
166 1 0.625 0.5 0.25
167 1 0.75 0.5 0.25
168 1 0.875 0.5 0.25
169 1 6.46474e-11 0.625 0.25
170 1 0.125 0.625 0.25
171 1 0.25 0.625 0.25
172 1 0.375 0.625 0.25
173 1 0.5 0.625 0.25
174 1 0.625 0.625 0.25
175 1 0.75 0.625 0.25
176 1 0.875 0.625 0.25
177 1 3.8919e-10 0.75 0.25
178 1 0.125 0.75 0.25
179 1 0.25 0.75 0.25
180 1 0.375 0.75 0.25
181 1 0.5 0.75 0.25
182 1 0.625 0.75 0.25
183 1 0.75 0.75 0.25
184 1 0.875 0.75 0.25
185 1 1 0.875 0.25
186 1 0.125 0.875 0.25
187 1 0.25 0.875 0.25
188 1 0.375 0.875 0.25
189 1 0.5 0.875 0.25
190 1 0.625 0.875 0.25
191 1 0.75 0.875 0.25
192 1 0.875 0.875 0.25
193 1 1 2.3242e-10 0.375
194 1 0.125 2.3242e-10 0.375
195 1 0.25 2.3242e-10 0.375
196 1 0.375 2.3242e-10 0.375
197 1 0.5 2.3242e-10 0.375
198 1 0.625 2.3242e-10 0.375
199 1 0.75 2.3242e-10 0.375
200 1 0.875 2.3242e-10 0.375
201 1 1.94595e-10 0.125 0.375
202 1 0.125 0.125 0.375
203 1 0.25 0.125 0.375
204 1 0.375 0.125 0.375
205 1 0.5 0.125 0.375
206 1 0.625 0.125 0.375
207 1 0.75 0.125 0.375
208 1 0.875 0.125 0.375
209 1 1 0.25 0.375
210 1 0.125 0.25 0.375
211 1 0.25 0.25 0.375
212 1 0.375 0.25 0.375
213 1 0.5 0.25 0.375
214 1 0.625 0.25 0.375
215 1 0.75 0.25 0.375
216 1 0.875 0.25 0.375
217 1 7.2343e-11 0.375 0.375
218 1 0.125 0.375 0.375
219 1 0.25 0.375 0.375
220 1 0.375 0.375 0.375
221 1 0.5 0.375 0.375
222 1 0.625 0.375 0.375
223 1 0.75 0.375 0.375
224 1 0.875 0.375 0.375
225 1 1.14557e-10 0.5 0.375
226 1 0.125 0.5 0.375
227 1 0.25 0.5 0.375
228 1 0.375 0.5 0.375
229 1 0.5 0.5 0.375
230 1 0.625 0.5 0.375
231 1 0.75 0.5 0.375
232 1 0.875 0.5 0.375
233 1 4.39099e-10 0.625 0.375
234 1 0.125 0.625 0.375
235 1 0.25 0.625 0.375
236 1 0.375 0.625 0.375
237 1 0.5 0.625 0.375
238 1 0.625 0.625 0.375
239 1 0.75 0.625 0.375
240 1 0.875 0.625 0.375
241 1 1 0.75 0.375
242 1 0.125 0.75 0.375
243 1 0.25 0.75 0.375
244 1 0.375 0.75 0.375
245 1 0.5 0.75 0.375
246 1 0.625 0.75 0.375
247 1 0.75 0.75 0.375
248 1 0.875 0.75 0.375
249 1 3.16847e-10 0.875 0.375
250 1 0.125 0.875 0.375
251 1 0.25 0.875 0.375
252 1 0.375 0.875 0.375
253 1 0.5 0.875 0.375
254 1 0.625 0.875 0.375
255 1 0.75 0.875 0.375
256 1 0.875 0.875 0.375
257 1 2.44504e-10 0 0.5
258 1 0.125 0 0.5
259 1 0.25 0 0.5
260 1 0.375 0 0.5
261 1 0.5 0 0.5
262 1 0.625 0 0.5
263 1 0.75 0 0.5
264 1 0.875 0 0.5
265 1 1 0.125 0.5
266 1 0.125 0.125 0.5
267 1 0.25 0.125 0.5
268 1 0.375 0.125 0.5
269 1 0.5 0.125 0.5
270 1 0.625 0.125 0.5
271 1 0.75 0.125 0.5
272 1 0.875 0.125 0.5
273 1 1.22252e-10 0.25 0.5
274 1 0.125 0.25 0.5
275 1 0.25 0.25 0.5
276 1 0.375 0.25 0.5
277 1 0.5 0.25 0.5
278 1 0.625 0.25 0.5
279 1 0.75 0.25 0.5
280 1 0.875 0.25 0.5
281 1 1.64466e-10 0.375 0.5
282 1 0.125 0.375 0.5
283 1 0.25 0.375 0.5
284 1 0.375 0.375 0.5
285 1 0.5 0.375 0.5
286 1 0.625 0.375 0.5
287 1 0.75 0.375 0.5
288 1 0.875 0.375 0.5
289 1 4.89009e-10 0.5 0.5
290 1 0.125 0.5 0.5
291 1 0.25 0.5 0.5
292 1 0.375 0.5 0.5
293 1 0.5 0.5 0.5
294 1 0.625 0.5 0.5
295 1 0.75 0.5 0.5
296 1 0.875 0.5 0.5
297 1 4.22134e-11 0.625 0.5
298 1 0.125 0.625 0.5
299 1 0.25 0.625 0.5
300 1 0.375 0.625 0.5
301 1 0.5 0.625 0.5
302 1 0.625 0.625 0.5
303 1 0.75 0.625 0.5
304 1 0.875 0.625 0.5
305 1 3.66757e-10 0.75 0.5
306 1 0.125 0.75 0.5
307 1 0.25 0.75 0.5
308 1 0.375 0.75 0.5
309 1 0.5 0.75 0.5
310 1 0.625 0.75 0.5
311 1 0.75 0.75 0.5
312 1 0.875 0.75 0.5
313 1 4.0897e-10 0.875 0.5
314 1 0.125 0.875 0.5
315 1 0.25 0.875 0.5
316 1 0.375 0.875 0.5
317 1 0.5 0.875 0.5
318 1 0.625 0.875 0.5
319 1 0.75 0.875 0.5
320 1 0.875 0.875 0.5
321 1 1 1.32602e-10 0.625
322 1 0.125 1.32602e-10 0.625
323 1 0.25 1.32602e-10 0.625
324 1 0.375 1.32602e-10 0.625
325 1 0.5 1.32602e-10 0.625
326 1 0.625 1.32602e-10 0.625
327 1 0.75 1.32602e-10 0.625
328 1 0.875 1.32602e-10 0.625
329 1 1 0.125 0.625
330 1 0.125 0.125 0.625
331 1 0.25 0.125 0.625
332 1 0.375 0.125 0.625
333 1 0.5 0.125 0.625
334 1 0.625 0.125 0.625
335 1 0.75 0.125 0.625
336 1 0.875 0.125 0.625
337 1 1.47379e-11 0.25 0.625
338 1 0.125 0.25 0.625
339 1 0.25 0.25 0.625
340 1 0.375 0.25 0.625
341 1 0.5 0.25 0.625
342 1 0.625 0.25 0.625
343 1 0.75 0.25 0.625
344 1 0.875 0.25 0.625
345 1 3.39281e-10 0.375 0.625
346 1 0.125 0.375 0.625
347 1 0.25 0.375 0.625
348 1 0.375 0.375 0.625
349 1 0.5 0.375 0.625
350 1 0.625 0.375 0.625
351 1 0.75 0.375 0.625
352 1 0.875 0.375 0.625
353 1 1 0.5 0.625
354 1 0.125 0.5 0.625
355 1 0.25 0.5 0.625
356 1 0.375 0.5 0.625
357 1 0.5 0.5 0.625
358 1 0.625 0.5 0.625
359 1 0.75 0.5 0.625
360 1 0.875 0.5 0.625
361 1 2.17029e-10 0.625 0.625
362 1 0.125 0.625 0.625
363 1 0.25 0.625 0.625
364 1 0.375 0.625 0.625
365 1 0.5 0.625 0.625
366 1 0.625 0.625 0.625
367 1 0.75 0.625 0.625
368 1 0.875 0.625 0.625
369 1 2.59242e-10 0.75 0.625
370 1 0.125 0.75 0.625
371 1 0.25 0.75 0.625
372 1 0.375 0.75 0.625
373 1 0.5 0.75 0.625
374 1 0.625 0.75 0.625
375 1 0.75 0.75 0.625
376 1 0.875 0.75 0.625
377 1 9.47767e-11 0.875 0.625
378 1 0.125 0.875 0.625
379 1 0.25 0.875 0.625
380 1 0.375 0.875 0.625
381 1 0.5 0.875 0.625
382 1 0.625 0.875 0.625
383 1 0.75 0.875 0.625
384 1 0.875 0.875 0.625
385 1 2.24335e-11 1 0.75
386 1 0.125 1 0.75
387 1 0.25 1 0.75
388 1 0.375 1 0.75
389 1 0.5 1 0.75
390 1 0.625 1 0.75
391 1 0.75 1 0.75
392 1 0.875 1 0.75
393 1 6.46473e-11 0.125 0.75
394 1 0.125 0.125 0.75
395 1 0.25 0.125 0.75
396 1 0.375 0.125 0.75
397 1 0.5 0.125 0.75
398 1 0.625 0.125 0.75
399 1 0.75 0.125 0.75
400 1 0.875 0.125 0.75
401 1 3.8919e-10 0.25 0.75
402 1 0.125 0.25 0.75
403 1 0.25 0.25 0.75
404 1 0.375 0.25 0.75
405 1 0.5 0.25 0.75
406 1 0.625 0.25 0.75
407 1 0.75 0.25 0.75
408 1 0.875 0.25 0.75
409 1 1 0.375 0.75
410 1 0.125 0.375 0.75
411 1 0.25 0.375 0.75
412 1 0.375 0.375 0.75
413 1 0.5 0.375 0.75
414 1 0.625 0.375 0.75
415 1 0.75 0.375 0.75
416 1 0.875 0.375 0.75
417 1 2.66938e-10 0.5 0.75
418 1 0.125 0.5 0.75
419 1 0.25 0.5 0.75
420 1 0.375 0.5 0.75
421 1 0.5 0.5 0.75
422 1 0.625 0.5 0.75
423 1 0.75 0.5 0.75
424 1 0.875 0.5 0.75
425 1 3.09152e-10 0.625 0.75
426 1 0.125 0.625 0.75
427 1 0.25 0.625 0.75
428 1 0.375 0.625 0.75
429 1 0.5 0.625 0.75
430 1 0.625 0.625 0.75
431 1 0.75 0.625 0.75
432 1 0.875 0.625 0.75
433 1 1.44686e-10 0.75 0.75
434 1 0.125 0.75 0.75
435 1 0.25 0.75 0.75
436 1 0.375 0.75 0.75
437 1 0.5 0.75 0.75
438 1 0.625 0.75 0.75
439 1 0.75 0.75 0.75
440 1 0.875 0.75 0.75
441 1 1.86899e-10 0.875 0.75
442 1 0.125 0.875 0.75
443 1 0.25 0.875 0.75
444 1 0.375 0.875 0.75
445 1 0.5 0.875 0.75
446 1 0.625 0.875 0.75
447 1 0.75 0.875 0.75
448 1 0.875 0.875 0.75
449 1 1.14557e-10 2.3242e-10 0.875
450 1 0.125 2.3242e-10 0.875
451 1 0.25 2.3242e-10 0.875
452 1 0.375 2.3242e-10 0.875
453 1 0.5 2.3242e-10 0.875
454 1 0.625 2.3242e-10 0.875
455 1 0.75 2.3242e-10 0.875
456 1 0.875 2.3242e-10 0.875
457 1 4.39099e-10 0.125 0.875
458 1 0.125 0.125 0.875
459 1 0.25 0.125 0.875
460 1 0.375 0.125 0.875
461 1 0.5 0.125 0.875
462 1 0.625 0.125 0.875
463 1 0.75 0.125 0.875
464 1 0.875 0.125 0.875
465 1 1 0.25 0.875
466 1 0.125 0.25 0.875
467 1 0.25 0.25 0.875
468 1 0.375 0.25 0.875
469 1 0.5 0.25 0.875
470 1 0.625 0.25 0.875
471 1 0.75 0.25 0.875
472 1 0.875 0.25 0.875
473 1 3.16847e-10 0.375 0.875
474 1 0.125 0.375 0.875
475 1 0.25 0.375 0.875
476 1 0.375 0.375 0.875
477 1 0.5 0.375 0.875
478 1 0.625 0.375 0.875
479 1 0.75 0.375 0.875
480 1 0.875 0.375 0.875
481 1 3.59061e-10 0.5 0.875
482 1 0.125 0.5 0.875
483 1 0.25 0.5 0.875
484 1 0.375 0.5 0.875
485 1 0.5 0.5 0.875
486 1 0.625 0.5 0.875
487 1 0.75 0.5 0.875
488 1 0.875 0.5 0.875
489 1 1.94595e-10 0.625 0.875
490 1 0.125 0.625 0.875
491 1 0.25 0.625 0.875
492 1 0.375 0.625 0.875
493 1 0.5 0.625 0.875
494 1 0.625 0.625 0.875
495 1 0.75 0.625 0.875
496 1 0.875 0.625 0.875
497 1 2.36809e-10 0.75 0.875
498 1 0.125 0.75 0.875
499 1 0.25 0.75 0.875
500 1 0.375 0.75 0.875
501 1 0.5 0.75 0.875
502 1 0.625 0.75 0.875
503 1 0.75 0.75 0.875
504 1 0.875 0.75 0.875
505 1 5.61352e-10 0.875 0.875
506 1 0.125 0.875 0.875
507 1 0.25 0.875 0.875
508 1 0.375 0.875 0.875
509 1 0.5 0.875 0.875
510 1 0.625 0.875 0.875
511 1 0.75 0.875 0.875
512 1 0.875 0.875 0.875
ITEM: TIMESTEP
50000
ITEM: NUMBER OF ATOMS
512
ITEM: BOX BOUNDS xy xz yz pp pp pp
-4.2714383652684873e-02 4.1027199360916455e+01 1.0267478433632096e+01
-3.6991741352917273e-02 2.3674734022254647e+01 1.0267478433632096e+01
-3.4876148201966828e-02 1.6731845928202318e+01 5.9279314409020394e+00
ITEM: ATOMS id type xs ys zs
1 1 0.997771 0.00134736 0.000952012
2 1 0.118069 0.00301132 0.00515671
3 1 0.252501 0.00216774 0.00595531
4 1 0.373285 0.00239104 0.00341307
5 1 0.498118 0.00161847 0.00353196
6 1 0.613365 0.00684476 0.00163366
7 1 0.749579 0.00545971 0.99955
8 1 0.881605 0.00231504 0.99325
9 1 0.995889 0.127679 0.996902
10 1 0.119508 0.131528 0.00331049
11 1 0.251785 0.126338 0.999374
12 1 0.37549 0.125721 0.997544
13 1 0.489917 0.126833 0.997855
14 1 0.61725 0.12916 0.998701
15 1 0.743823 0.12786 0.996719
16 1 0.868491 0.125433 0.996184
17 1 -0.000566835 0.250795 0.998144
18 1 0.120998 0.259196 0.00395518
19 1 0.25507 0.249574 0.990581
20 1 0.371513 0.253261 0.995154
21 1 0.491556 0.242653 0.00623111
22 1 0.614694 0.257492 0.996647
23 1 0.740237 0.2578 1.0017
24 1 0.872044 0.249836 0.998153
25 1 0.992715 0.378503 0.998216
26 1 0.127784 0.380753 0.992984
27 1 0.255885 0.375848 0.99465
28 1 0.373959 0.380837 0.997301
29 1 0.491076 0.370037 0.00634305
30 1 0.622254 0.376027 0.998918
31 1 0.745714 0.37446 1.00306
32 1 0.873801 0.371147 -0.000203714
33 1 0.00709785 0.504368 0.000969304
34 1 0.131857 0.497275 0.994158
35 1 0.252978 0.499128 0.00389966
36 1 0.38269 0.501394 0.999846
37 1 0.501531 0.502781 0.0026606
38 1 0.62663 0.497271 0.00296696
39 1 0.750596 0.49819 0.00260282
40 1 0.876747 0.491275 0.0112696
41 1 0.00777766 0.630301 0.988597
42 1 0.122418 0.628726 0.993842
43 1 0.251928 0.631285 0.993902
44 1 0.369844 0.626866 0.01006
45 1 0.500228 0.623428 1.00333
46 1 0.633225 0.624098 0.997113
47 1 0.75264 0.620284 0.00301434
48 1 0.880618 0.61958 0.00962642
49 1 0.0082799 0.753605 0.991958
50 1 0.120742 0.757556 0.997854
51 1 0.249104 0.751159 0.0102577
52 1 0.374672 0.750992 0.00313232
53 1 0.508469 0.747188 0.996285
54 1 0.630069 0.748543 1.00226
55 1 0.75468 0.746932 1.00031
56 1 0.869208 0.761016 0.994676
57 1 0.999616 0.874672 0.00197127
58 1 0.124503 0.876407 0.998843
59 1 0.262238 0.872019 0.999696
60 1 0.381155 0.871956 0.00627658
61 1 0.510392 0.867641 1.00306
62 1 0.631925 0.875255 0.00163288
63 1 0.74705 0.882655 0.999828
64 1 0.874945 0.876756 -0.00122371
65 1 0.00279669 0.998808 0.126989
66 1 0.128414 0.998011 0.128796
67 1 0.254913 0.994488 0.132015
68 1 0.377716 1.00028 0.123241
69 1 0.493628 0.00146915 0.127089
70 1 0.631602 0.986966 0.127156
71 1 0.755639 1.00136 0.122654
72 1 0.874331 0.995904 0.127832
73 1 0.00492088 0.119726 0.124794
74 1 0.123098 0.121271 0.129077
75 1 0.247243 0.123307 0.12409
76 1 0.370153 0.124809 0.12524
77 1 0.500361 0.123188 0.122668
78 1 0.627471 0.125009 0.125583
79 1 0.746078 0.127232 0.128018
80 1 0.87348 0.121802 0.121876
81 1 0.998402 0.251837 0.122801
82 1 0.128057 0.252938 0.124275
83 1 0.256588 0.241265 0.122527
84 1 0.373084 0.241089 0.125474
85 1 0.498119 0.244244 0.12801
86 1 0.618894 0.252817 0.12544
87 1 0.751204 0.250395 0.122194
88 1 0.874587 0.244597 0.129692
89 1 0.00438741 0.373579 0.121058
90 1 0.128193 0.371502 0.124333
91 1 0.256833 0.369128 0.122837
92 1 0.37348 0.371051 0.126866
93 1 0.498177 0.372297 0.132175
94 1 0.620265 0.377423 0.125584
95 1 0.748344 0.37371 0.121836
96 1 0.870955 0.374485 0.128794
97 1 0.00425066 0.500389 0.127753
98 1 0.133295 0.490163 0.123969
99 1 0.251278 0.503336 0.123459
100 1 0.379852 0.486973 0.126543
101 1 0.500301 0.501086 0.126786
102 1 0.623082 0.499201 0.131309
103 1 0.741583 0.498335 0.135695
104 1 0.874472 0.503722 0.129579
105 1 0.0143758 0.622166 0.118449
106 1 0.133907 0.623326 0.122529
107 1 0.250939 0.624738 0.132667
108 1 0.376529 0.621157 0.13584
109 1 0.500129 0.626768 0.125114
110 1 0.62541 0.623923 0.128564
111 1 0.75227 0.619468 0.128872
112 1 0.878088 0.623936 0.12602
113 1 0.999987 0.750483 0.126546
114 1 0.122081 0.746957 0.133402
115 1 0.256347 0.751631 0.124007
116 1 0.377628 0.749367 0.122924
117 1 0.503309 0.749742 0.127321
118 1 0.628271 0.750076 0.119266
119 1 0.740444 0.754221 0.126698
120 1 0.879023 0.744448 0.121324
121 1 0.00267674 0.875676 0.119275
122 1 0.133868 0.867949 0.11913
123 1 0.249984 0.880789 0.125588
124 1 0.382843 0.872747 0.126177
125 1 0.506063 0.878223 0.118636
126 1 0.621933 0.879222 0.122966
127 1 0.753484 0.875856 0.11956
128 1 0.878862 0.871317 0.124402
129 1 0.00451058 0.997158 0.251022
130 1 0.136352 0.999572 0.252468
131 1 0.252617 0.99885 0.256869
132 1 0.378066 0.000345709 0.248216
133 1 0.507637 0.00225991 0.24654
134 1 0.623317 0.00346529 0.24755
135 1 0.743347 0.00168912 0.247529
136 1 0.878699 0.993887 0.249558
137 1 0.994071 0.131233 0.245124
138 1 0.122354 0.12872 0.247296
139 1 0.245527 0.128379 0.251096
140 1 0.370229 0.11877 0.260647
141 1 0.500286 0.128241 0.247176
142 1 0.62652 0.123295 0.26005
143 1 0.744226 0.124475 0.252832
144 1 0.875821 0.114649 0.254823
145 1 0.00708689 0.249498 0.247002
146 1 0.125737 0.249016 0.249368
147 1 0.247002 0.249347 0.255616
148 1 0.371883 0.247973 0.253522
149 1 0.497089 0.250588 0.254345
150 1 0.622929 0.250298 0.244934
151 1 0.75207 0.248016 0.251047
152 1 0.87121 0.24796 0.253173
153 1 0.998059 0.372271 0.251642
154 1 0.121922 0.375181 0.251554
155 1 0.249323 0.373402 0.249129
156 1 0.371732 0.364764 0.260706
157 1 0.501751 0.370525 0.254583
158 1 0.628365 0.371672 0.254526
159 1 0.75602 0.374675 0.247915
160 1 0.875528 0.375426 0.24713
161 1 0.999541 0.494427 0.256799
162 1 0.120283 0.501172 0.254142
163 1 0.246816 0.498669 0.256129
164 1 0.374149 0.497833 0.252544
165 1 0.496519 0.500011 0.250073
166 1 0.61294 0.502958 0.254377
167 1 0.752594 0.497924 0.253983
168 1 0.87601 0.499253 0.254271
169 1 0.0117475 0.623537 0.239408
170 1 0.127229 0.622308 0.246992
171 1 0.249393 0.625369 0.255144
172 1 0.37604 0.619511 0.255528
173 1 0.499032 0.627007 0.246485
174 1 0.629088 0.623833 0.245544
175 1 0.757141 0.625119 0.240981
176 1 0.883174 0.629141 0.246231
177 1 0.999888 0.752191 0.252161
178 1 0.129426 0.748708 0.252912
179 1 0.252689 0.753908 0.246956
180 1 0.371288 0.74689 0.252591
181 1 0.497358 0.751169 0.248313
182 1 0.618922 0.754234 0.244518
183 1 0.753404 0.748139 0.24797
184 1 0.874818 0.747589 0.251358
185 1 0.00167074 0.870048 0.2526
186 1 0.126107 0.866568 0.252458
187 1 0.256143 0.872843 0.250148
188 1 0.381327 0.875333 0.248861
189 1 0.502528 0.871309 0.245539
190 1 0.624919 0.873669 0.251219
191 1 0.75048 0.873454 0.250807
192 1 0.871903 0.869074 0.258321
193 1 0.00211188 0.999845 0.369632
194 1 0.125642 0.993605 0.378911
195 1 0.249698 0.00838686 0.368068
196 1 0.369758 0.00454784 0.379077
197 1 0.506002 0.990592 0.371535
198 1 0.622278 0.0022452 0.375195
199 1 0.753676 0.997447 0.367961
200 1 0.876723 0.993134 0.374769
201 1 0.998512 0.126125 0.376345
202 1 0.121514 0.129714 0.375853
203 1 0.240638 0.134147 0.377386
204 1 0.381892 0.11846 0.378573
205 1 0.495913 0.120765 0.380908
206 1 0.622327 0.12433 0.383046
207 1 0.753804 0.115392 0.378092
208 1 0.881733 0.12407 0.365156
209 1 0.00232909 0.251377 0.378021
210 1 0.126002 0.259029 0.375035
211 1 0.247915 0.253493 0.381446
212 1 0.377167 0.242839 0.378713
213 1 0.501802 0.246402 0.379766
214 1 0.635554 0.243267 0.377769
215 1 0.755725 0.247506 0.374759
216 1 0.875559 0.2539 0.371743
217 1 -0.000830388 0.377058 0.379955
218 1 0.126198 0.379766 0.379434
219 1 0.250287 0.373559 0.382787
220 1 0.373114 0.370781 0.376399
221 1 0.502899 0.370339 0.38328
222 1 0.63391 0.38235 0.372485
223 1 0.756636 0.381834 0.374441
224 1 0.868214 0.381598 0.382024
225 1 0.0013971 0.506572 0.371512
226 1 0.130328 0.502007 0.379505
227 1 0.252563 0.502553 0.379885
228 1 0.373318 0.49809 0.379975
229 1 0.498247 0.498799 0.374482
230 1 0.621882 0.510062 0.369898
231 1 0.74739 0.505488 0.378229
232 1 0.873466 0.507979 0.371038
233 1 0.00840666 0.620345 0.378578
234 1 0.130236 0.623575 0.370535
235 1 0.247625 0.633381 0.37444
236 1 0.373663 0.628689 0.374869
237 1 0.501992 0.631868 0.365154
238 1 0.623805 0.630031 0.370489
239 1 0.754735 0.62751 0.36706
240 1 0.878277 0.62025 0.377576
241 1 0.99719 0.746288 0.380893
242 1 0.115851 0.747962 0.378373
243 1 0.24255 0.750424 0.375246
244 1 0.369641 0.760047 0.367267
245 1 0.489756 0.753116 0.379396
246 1 0.629764 0.742807 0.371547
247 1 0.753644 0.750118 0.370032
248 1 0.879363 0.74797 0.378577
249 1 0.995907 0.872082 0.378003
250 1 0.123036 0.873001 0.371821
251 1 0.244101 0.873497 0.379201
252 1 0.365682 0.87223 0.37743
253 1 0.496831 0.876072 0.371959
254 1 0.617391 0.871452 0.379018
255 1 0.74494 0.876381 0.373684
256 1 0.873852 0.875051 0.372109
257 1 0.999911 0.997676 0.490994
258 1 0.121259 0.00199193 0.49772
259 1 0.230093 1.0046 0.511914
260 1 0.367387 0.996411 0.502372
261 1 0.499013 0.989407 0.49899
262 1 0.621779 0.995692 0.498927
263 1 0.754149 0.993888 0.496242
264 1 0.875992 0.997046 0.498191
265 1 0.996354 0.125269 0.503017
266 1 0.119374 0.125283 0.508735
267 1 0.253787 0.116269 0.499365
268 1 0.37658 0.113457 0.5069
269 1 0.497641 0.114307 0.499453
270 1 0.62867 0.121869 0.502043
271 1 0.754474 0.116289 0.497535
272 1 0.878392 0.118082 0.494873
273 1 0.00345074 0.244496 0.502359
274 1 0.125099 0.251168 0.501864
275 1 0.265696 0.249552 0.496463
276 1 0.386637 0.237862 0.504387
277 1 0.512002 0.242815 0.493891
278 1 0.631818 0.247791 0.497399
279 1 0.757709 0.249724 0.492289
280 1 0.869245 0.251408 0.498955
281 1 0.00170906 0.372049 0.503619
282 1 0.129309 0.371333 0.500667
283 1 0.249787 0.369819 0.501803
284 1 0.369943 0.374116 0.496079
285 1 0.500257 0.37265 0.50108
286 1 0.622988 0.370796 0.497256
287 1 0.747314 0.371849 0.498391
288 1 0.876936 0.370667 0.504412
289 1 0.00903971 0.49648 0.49781
290 1 0.128097 0.508787 0.500152
291 1 0.248716 0.499951 0.501773
292 1 0.37257 0.493822 0.505076
293 1 0.501128 0.498322 0.494472
294 1 0.631511 0.495559 0.50186
295 1 0.753989 0.495707 0.503415
296 1 0.881211 0.492338 0.498924
297 1 0.995404 0.618673 0.505306
298 1 0.129612 0.630739 0.500943
299 1 0.251496 0.633029 0.498237
300 1 0.380952 0.624467 0.491597
301 1 0.497501 0.628142 0.495846
302 1 0.627785 0.62356 0.498938
303 1 0.750577 0.630164 0.491451
304 1 0.879849 0.615422 0.500344
305 1 0.997323 0.749935 0.504515
306 1 0.126015 0.758946 0.494832
307 1 0.257384 0.749043 0.491219
308 1 0.368419 0.751031 0.504761
309 1 0.492634 0.74708 0.503511
310 1 0.616006 0.751299 0.502118
311 1 0.747379 0.750843 0.498836
312 1 0.877552 0.743478 0.500144
313 1 0.0031743 0.87285 0.496811
314 1 0.120296 0.873806 0.503051
315 1 0.243135 0.888632 0.491435
316 1 0.374834 0.871115 0.500768
317 1 0.498378 0.868894 0.502568
318 1 0.617597 0.87393 0.50641
319 1 0.74814 0.876883 0.493457
320 1 0.878026 0.870919 0.498936
321 1 0.999155 0.998261 0.616895
322 1 0.112758 1.00269 0.62942
323 1 0.253683 -0.00211677 0.625921
324 1 0.370756 0.995484 0.636503
325 1 0.497649 0.992735 0.630889
326 1 0.626215 0.995213 0.622874
327 1 0.748427 1.00196 0.618854
328 1 0.874057 0.9936 0.624746
329 1 0.00123124 0.125928 0.627946
330 1 0.126235 0.127592 0.62491
331 1 0.25638 0.115518 0.629096
332 1 0.368241 0.12081 0.634948
333 1 0.500086 0.12487 0.617977
334 1 0.625302 0.120287 0.626159
335 1 0.755104 0.122833 0.620792
336 1 0.880313 0.131702 0.620716
337 1 0.000173562 0.248473 0.627719
338 1 0.132121 0.252547 0.628476
339 1 0.252773 0.248966 0.623973
340 1 0.37541 0.252455 0.619643
341 1 0.501655 0.249765 0.617853
342 1 0.626508 0.24831 0.622597
343 1 0.749745 0.248848 0.625074
344 1 0.867451 0.255316 0.626688
345 1 0.0014539 0.375278 0.616005
346 1 0.118821 0.38001 0.629189
347 1 0.241345 0.384819 0.623744
348 1 0.367971 0.37249 0.621382
349 1 0.498068 0.368722 0.62782
350 1 0.626062 0.374271 0.621673
351 1 0.753042 0.372925 0.617477
352 1 0.866987 0.379097 0.630309
353 1 0.000986871 0.502288 0.631053
354 1 0.123883 0.507113 0.628178
355 1 0.243444 0.50732 0.625087
356 1 0.381313 0.500641 0.617482
357 1 0.501985 0.50086 0.61997
358 1 0.634679 0.496067 0.625737
359 1 0.755136 0.504451 0.623715
360 1 0.882092 0.499913 0.624292
361 1 0.00458282 0.624646 0.622028
362 1 0.120864 0.632776 0.627093
363 1 0.259425 0.622036 0.622343
364 1 0.387879 0.618875 0.62134
365 1 0.504312 0.622965 0.621564
366 1 0.629405 0.631218 0.619652
367 1 0.753737 0.62644 0.621617
368 1 0.874045 0.626406 0.630643
369 1 0.996386 0.75418 0.620366
370 1 0.127254 0.746103 0.619351
371 1 0.24562 0.749087 0.626986
372 1 0.377961 0.750939 0.622157
373 1 0.504639 0.742628 0.626488
374 1 0.623717 0.750698 0.621657
375 1 0.745398 0.753418 0.627044
376 1 0.869698 0.75323 0.623102
377 1 0.998468 0.871111 0.624019
378 1 0.130813 0.870968 0.615938
379 1 0.2487 0.877574 0.624356
380 1 0.366168 0.878305 0.63008
381 1 0.494071 0.869746 0.636066
382 1 0.619276 0.875803 0.626474
383 1 0.751371 0.882368 0.620355
384 1 0.878337 0.87488 0.618246
385 1 0.994402 0.000949622 0.752878
386 1 0.121962 1.00212 0.745025
387 1 0.242907 0.999626 0.75596
388 1 0.367517 0.00534898 0.757724
389 1 0.496013 0.992224 0.758047
390 1 0.620074 -0.000659058 0.750653
391 1 0.750406 0.00567917 0.748093
392 1 0.877282 0.0116235 0.74255
393 1 0.996212 0.128374 0.753575
394 1 0.121547 0.125148 0.756456
395 1 0.24486 0.128143 0.749824
396 1 0.371479 0.119083 0.754301
397 1 0.49615 0.120625 0.749621
398 1 0.619505 0.124987 0.748299
399 1 0.743966 0.13154 0.74425
400 1 0.873202 0.131244 0.742336
401 1 -0.0021214 0.255048 0.745112
402 1 0.124024 0.246059 0.756904
403 1 0.245373 0.250789 0.748511
404 1 0.368933 0.251528 0.741458
405 1 0.5006 0.248419 0.744311
406 1 0.620572 0.249747 0.749283
407 1 0.747303 0.253453 0.751805
408 1 0.8792 0.252604 0.742398
409 1 0.00446 0.368593 0.742479
410 1 0.119636 0.377867 0.752706
411 1 0.243943 0.383253 0.748655
412 1 0.373696 0.372226 0.74315
413 1 0.507521 0.362649 0.749085
414 1 0.627336 0.374016 0.742219
415 1 0.748516 0.383122 0.750816
416 1 0.876318 0.379521 0.743034
417 1 0.00399845 0.501112 0.751561
418 1 0.121263 0.50653 0.75286
419 1 0.254459 0.502162 0.748418
420 1 0.380829 0.49442 0.747395
421 1 0.503353 0.501498 0.750535
422 1 0.628776 0.506847 0.748024
423 1 0.75516 0.499171 0.746345
424 1 0.871848 0.506061 0.750331
425 1 1.00051 0.631857 0.744469
426 1 0.131437 0.624779 0.749405
427 1 0.244627 0.635628 0.746461
428 1 0.379219 0.62914 0.747489
429 1 0.508599 0.614693 0.754029
430 1 0.633004 0.627755 0.743237
431 1 0.748187 0.62581 0.749299
432 1 0.875154 0.62713 0.754789
433 1 0.00022331 0.753059 0.746182
434 1 0.117272 0.75718 0.748465
435 1 0.252863 0.75331 0.74801
436 1 0.379076 0.746781 0.752539
437 1 0.493772 0.745501 0.757796
438 1 0.62683 0.754897 0.74759
439 1 0.745483 0.759054 0.746474
440 1 0.874027 0.759793 0.743755
441 1 0.997 0.880678 0.746601
442 1 0.126417 0.870405 0.745079
443 1 0.246359 0.877685 0.747556
444 1 0.365409 0.876052 0.767345
445 1 0.499601 0.870019 0.75648
446 1 0.624356 0.877441 0.751249
447 1 0.751442 0.880766 0.7478
448 1 0.871993 0.881497 0.750218
449 1 0.00304399 0.00436966 0.872635
450 1 0.125398 0.00285039 0.877009
451 1 0.257541 0.993394 0.880648
452 1 0.379952 0.990854 0.881433
453 1 0.49759 1.00022 0.877954
454 1 0.622 0.99757 0.881003
455 1 0.739032 0.0103068 0.875012
456 1 0.874409 0.998073 0.872255
457 1 0.985429 0.131396 0.877749
458 1 0.116573 0.126201 0.87766
459 1 0.239023 0.125612 0.875202
460 1 0.367919 0.123661 0.869544
461 1 0.50023 0.117696 0.875249
462 1 0.61583 0.130596 0.872064
463 1 0.745303 0.1378 0.865157
464 1 0.87454 0.123685 0.87447
465 1 -0.00117282 0.250555 0.870038
466 1 0.12411 0.253998 0.870954
467 1 0.248889 0.255609 0.865767
468 1 0.383372 0.24717 0.856821
469 1 0.493111 0.250555 0.871749
470 1 0.621619 0.257474 0.868518
471 1 0.751992 0.256851 0.87004
472 1 0.881721 0.246939 0.867211
473 1 0.99012 0.378087 0.872386
474 1 0.11532 0.379077 0.880972
475 1 0.251214 0.371714 0.877734
476 1 0.377092 0.383409 0.868251
477 1 0.49972 0.370321 0.874049
478 1 0.620768 0.377862 0.87402
479 1 0.746066 0.375673 0.877819
480 1 0.87 0.372512 0.876733
481 1 0.99442 0.499138 0.879935
482 1 0.132822 0.504144 0.866162
483 1 0.252045 0.512166 0.871234
484 1 0.371013 0.505129 0.877201
485 1 0.497899 0.494625 0.882288
486 1 0.619094 0.501424 0.877615
487 1 0.753189 0.495132 0.875889
488 1 0.874285 0.496595 0.884266
489 1 -0.000720423 0.62243 0.876008
490 1 0.125943 0.629537 0.867542
491 1 0.248431 0.632299 0.872798
492 1 0.375659 0.626909 0.873736
493 1 0.498323 0.622597 0.879155
494 1 0.631149 0.621897 0.871496
495 1 0.75004 0.626532 0.872226
496 1 0.87648 0.630974 0.872092
497 1 1.00264 0.747947 0.874366
498 1 0.133919 0.753503 0.867634
499 1 0.248184 0.755865 0.8804
500 1 0.372016 0.750046 0.878222
501 1 0.501803 0.744969 0.875222
502 1 0.629661 0.752384 0.876204
503 1 0.75071 0.754914 0.866485
504 1 0.871517 0.749196 0.876595
505 1 -0.000634947 0.876822 0.87526
506 1 0.11624 0.880058 0.880989
507 1 0.244859 0.875111 0.891255
508 1 0.375026 0.87627 0.881837
509 1 0.504627 0.871686 0.881267
510 1 0.630621 0.880193 0.877125
511 1 0.749219 0.873927 0.881262
512 1 0.878711 0.875319 0.863764
ITEM: TIMESTEP
100000
ITEM: NUMBER OF ATOMS
512
ITEM: BOX BOUNDS xy xz yz pp pp pp
-4.9465409864060561e-02 4.1047452439544429e+01 1.0274229459840178e+01