ITEM: TIMESTEP
0
ITEM: NUMBER OF ATOMS
512
ITEM: BOX BOUNDS xy xz yz pp pp pp
0.0000000000000000e+00 4.6146935159999998e+01 1.1536733860000000e+01
0.0000000000000000e+00 2.6642945210000001e+01 1.1536733860000000e+01
0.0000000000000000e+00 1.8839407219999998e+01 6.6607362999999999e+00
ITEM: ATOMS id type xs ys zs
1 1 0 0 0
2 1 0.125 0 0
3 1 0.25 0 0
4 1 0.375 0 0
5 1 0.5 0 0
6 1 0.625 0 0
7 1 0.75 0 0
8 1 0.875 0 0
9 1 1 0.125 0
10 1 0.125 0.125 0
11 1 0.25 0.125 0
12 1 0.375 0.125 0
13 1 0.5 0.125 0
14 1 0.625 0.125 0
15 1 0.75 0.125 0
16 1 0.875 0.125 0
17 1 1 0.25 0
18 1 0.125 0.25 0
19 1 0.25 0.25 0
20 1 0.375 0.25 0
21 1 0.5 0.25 0
22 1 0.625 0.25 0
23 1 0.75 0.25 0
24 1 0.875 0.25 0
25 1 1 0.375 0
26 1 0.125 0.375 0
27 1 0.25 0.375 0
28 1 0.375 0.375 0
29 1 0.5 0.375 0
30 1 0.625 0.375 0
31 1 0.75 0.375 0
32 1 0.875 0.375 0
33 1 1 0.5 0
34 1 0.125 0.5 0
35 1 0.25 0.5 0
36 1 0.375 0.5 0
37 1 0.5 0.5 0
38 1 0.625 0.5 0
39 1 0.75 0.5 0
40 1 0.875 0.5 0
41 1 1 0.625 0
42 1 0.125 0.625 0
43 1 0.25 0.625 0
44 1 0.375 0.625 0
45 1 0.5 0.625 0
46 1 0.625 0.625 0
47 1 0.75 0.625 0
48 1 0.875 0.625 0
49 1 1 0.75 0
50 1 0.125 0.75 0
51 1 0.25 0.75 0
52 1 0.375 0.75 0
53 1 0.5 0.75 0
54 1 0.625 0.75 0
55 1 0.75 0.75 0
56 1 0.875 0.75 0
57 1 1 0.875 0
58 1 0.125 0.875 0
59 1 0.25 0.875 0
60 1 0.375 0.875 0
61 1 0.5 0.875 0
62 1 0.625 0.875 0
63 1 0.75 0.875 0
64 1 0.875 0.875 0
65 1 1 5.64696e-10 0.125
66 1 0.125 5.64696e-10 0.125
67 1 0.25 5.64696e-10 0.125
68 1 0.375 5.64696e-10 0.125
69 1 0.5 5.64696e-10 0.125
70 1 0.625 5.64696e-10 0.125
71 1 0.75 5.64696e-10 0.125
72 1 0.875 5.64696e-10 0.125
73 1 1 0.125 0.125
74 1 0.125 0.125 0.125
75 1 0.25 0.125 0.125
76 1 0.375 0.125 0.125
77 1 0.5 0.125 0.125
78 1 0.625 0.125 0.125
79 1 0.75 0.125 0.125
80 1 0.875 0.125 0.125
81 1 1 0.25 0.125
82 1 0.125 0.25 0.125
83 1 0.25 0.25 0.125
84 1 0.375 0.25 0.125
85 1 0.5 0.25 0.125
86 1 0.625 0.25 0.125
87 1 0.75 0.25 0.125
88 1 0.875 0.25 0.125
89 1 1 0.375 0.125
90 1 0.125 0.375 0.125
91 1 0.25 0.375 0.125
92 1 0.375 0.375 0.125
93 1 0.5 0.375 0.125
94 1 0.625 0.375 0.125
95 1 0.75 0.375 0.125
96 1 0.875 0.375 0.125
97 1 1 0.5 0.125
98 1 0.125 0.5 0.125
99 1 0.25 0.5 0.125
100 1 0.375 0.5 0.125
101 1 0.5 0.5 0.125
102 1 0.625 0.5 0.125
103 1 0.75 0.5 0.125
104 1 0.875 0.5 0.125
105 1 1 0.625 0.125
106 1 0.125 0.625 0.125
107 1 0.25 0.625 0.125
108 1 0.375 0.625 0.125
109 1 0.5 0.625 0.125
110 1 0.625 0.625 0.125
111 1 0.75 0.625 0.125
112 1 0.875 0.625 0.125
113 1 1 0.75 0.125
114 1 0.125 0.75 0.125
115 1 0.25 0.75 0.125
116 1 0.375 0.75 0.125
117 1 0.5 0.75 0.125
118 1 0.625 0.75 0.125
119 1 0.75 0.75 0.125
120 1 0.875 0.75 0.125
121 1 1 0.875 0.125
122 1 0.125 0.875 0.125
123 1 0.25 0.875 0.125
124 1 0.375 0.875 0.125
125 1 0.5 0.875 0.125
126 1 0.625 0.875 0.125
127 1 0.75 0.875 0.125
128 1 0.875 0.875 0.125
129 1 1 4.47009e-10 0.25
130 1 0.125 4.47009e-10 0.25
131 1 0.25 4.47009e-10 0.25
132 1 0.375 4.47009e-10 0.25
133 1 0.5 4.47009e-10 0.25
134 1 0.625 4.47009e-10 0.25
135 1 0.75 4.47009e-10 0.25
136 1 0.875 4.47009e-10 0.25
137 1 1 0.125 0.25
138 1 0.125 0.125 0.25
139 1 0.25 0.125 0.25
140 1 0.375 0.125 0.25
141 1 0.5 0.125 0.25
142 1 0.625 0.125 0.25
143 1 0.75 0.125 0.25
144 1 0.875 0.125 0.25
145 1 1 0.25 0.25
146 1 0.125 0.25 0.25
147 1 0.25 0.25 0.25
148 1 0.375 0.25 0.25
149 1 0.5 0.25 0.25
150 1 0.625 0.25 0.25
151 1 0.75 0.25 0.25
152 1 0.875 0.25 0.25
153 1 1 0.375 0.25
154 1 0.125 0.375 0.25
155 1 0.25 0.375 0.25
156 1 0.375 0.375 0.25
157 1 0.5 0.375 0.25
158 1 0.625 0.375 0.25
159 1 0.75 0.375 0.25
160 1 0.875 0.375 0.25
161 1 1 0.5 0.25
162 1 0.125 0.5 0.25
163 1 0.25 0.5 0.25
164 1 0.375 0.5 0.25
165 1 0.5 0.5 0.25
166 1 0.625 0.5 0.25
167 1 0.75 0.5 0.25
168 1 0.875 0.5 0.25
169 1 1 0.625 0.25
170 1 0.125 0.625 0.25
171 1 0.25 0.625 0.25
172 1 0.375 0.625 0.25
173 1 0.5 0.625 0.25
174 1 0.625 0.625 0.25
175 1 0.75 0.625 0.25
176 1 0.875 0.625 0.25
177 1 1 0.75 0.25
178 1 0.125 0.75 0.25
179 1 0.25 0.75 0.25
180 1 0.375 0.75 0.25
181 1 0.5 0.75 0.25
182 1 0.625 0.75 0.25
183 1 0.75 0.75 0.25
184 1 0.875 0.75 0.25
185 1 1 0.875 0.25
186 1 0.125 0.875 0.25
187 1 0.25 0.875 0.25
188 1 0.375 0.875 0.25
189 1 0.5 0.875 0.25
190 1 0.625 0.875 0.25
191 1 0.75 0.875 0.25
192 1 0.875 0.875 0.25
193 1 1 5.11261e-10 0.375
194 1 0.125 5.11261e-10 0.375
195 1 0.25 5.11261e-10 0.375
196 1 0.375 5.11261e-10 0.375
197 1 0.5 5.11261e-10 0.375
198 1 0.625 5.11261e-10 0.375
199 1 0.75 5.11261e-10 0.375
200 1 0.875 5.11261e-10 0.375
201 1 1 0.125 0.375
202 1 0.125 0.125 0.375
203 1 0.25 0.125 0.375
204 1 0.375 0.125 0.375
205 1 0.5 0.125 0.375
206 1 0.625 0.125 0.375
207 1 0.75 0.125 0.375
208 1 0.875 0.125 0.375
209 1 1 0.25 0.375
210 1 0.125 0.25 0.375
211 1 0.25 0.25 0.375
212 1 0.375 0.25 0.375
213 1 0.5 0.25 0.375
214 1 0.625 0.25 0.375
215 1 0.75 0.25 0.375
216 1 0.875 0.25 0.375
217 1 1 0.375 0.375
218 1 0.125 0.375 0.375
219 1 0.25 0.375 0.375
220 1 0.375 0.375 0.375
221 1 0.5 0.375 0.375
222 1 0.625 0.375 0.375
223 1 0.75 0.375 0.375
224 1 0.875 0.375 0.375
225 1 1 0.5 0.375
226 1 0.125 0.5 0.375
227 1 0.25 0.5 0.375
228 1 0.375 0.5 0.375
229 1 0.5 0.5 0.375
230 1 0.625 0.5 0.375
231 1 0.75 0.5 0.375
232 1 0.875 0.5 0.375
233 1 1 0.625 0.375
234 1 0.125 0.625 0.375
235 1 0.25 0.625 0.375
236 1 0.375 0.625 0.375
237 1 0.5 0.625 0.375
238 1 0.625 0.625 0.375
239 1 0.75 0.625 0.375
240 1 0.875 0.625 0.375
241 1 1 0.75 0.375
242 1 0.125 0.75 0.375
243 1 0.25 0.75 0.375
244 1 0.375 0.75 0.375
245 1 0.5 0.75 0.375
246 1 0.625 0.75 0.375
247 1 0.75 0.75 0.375
248 1 0.875 0.75 0.375
249 1 1 0.875 0.375
250 1 0.125 0.875 0.375
251 1 0.25 0.875 0.375
252 1 0.375 0.875 0.375
253 1 0.5 0.875 0.375
254 1 0.625 0.875 0.375
255 1 0.75 0.875 0.375
256 1 0.875 0.875 0.375
257 1 1 7.00624e-11 0.5
258 1 0.125 7.00624e-11 0.5
259 1 0.25 7.00624e-11 0.5
260 1 0.375 7.00624e-11 0.5
261 1 0.5 7.00624e-11 0.5
262 1 0.625 7.00624e-11 0.5
263 1 0.75 7.00624e-11 0.5
264 1 0.875 7.00624e-11 0.5
265 1 1 0.125 0.5
266 1 0.125 0.125 0.5
267 1 0.25 0.125 0.5
268 1 0.375 0.125 0.5
269 1 0.5 0.125 0.5
270 1 0.625 0.125 0.5
271 1 0.75 0.125 0.5
272 1 0.875 0.125 0.5
273 1 1 0.25 0.5
274 1 0.125 0.25 0.5
275 1 0.25 0.25 0.5
276 1 0.375 0.25 0.5
277 1 0.5 0.25 0.5
278 1 0.625 0.25 0.5
279 1 0.75 0.25 0.5
280 1 0.875 0.25 0.5
281 1 1 0.375 0.5
282 1 0.125 0.375 0.5
283 1 0.25 0.375 0.5
284 1 0.375 0.375 0.5
285 1 0.5 0.375 0.5
286 1 0.625 0.375 0.5
287 1 0.75 0.375 0.5
288 1 0.875 0.375 0.5
289 1 1 0.5 0.5
290 1 0.125 0.5 0.5
291 1 0.25 0.5 0.5
292 1 0.375 0.5 0.5
293 1 0.5 0.5 0.5
294 1 0.625 0.5 0.5
295 1 0.75 0.5 0.5
296 1 0.875 0.5 0.5
297 1 1 0.625 0.5
298 1 0.125 0.625 0.5
299 1 0.25 0.625 0.5
300 1 0.375 0.625 0.5
301 1 0.5 0.625 0.5
302 1 0.625 0.625 0.5
303 1 0.75 0.625 0.5
304 1 0.875 0.625 0.5
305 1 1 0.75 0.5
306 1 0.125 0.75 0.5
307 1 0.25 0.75 0.5
308 1 0.375 0.75 0.5
309 1 0.5 0.75 0.5
310 1 0.625 0.75 0.5
311 1 0.75 0.75 0.5
312 1 0.875 0.75 0.5
313 1 1 0.875 0.5
314 1 0.125 0.875 0.5
315 1 0.25 0.875 0.5
316 1 0.375 0.875 0.5
317 1 0.5 0.875 0.5
318 1 0.625 0.875 0.5
319 1 0.75 0.875 0.5
320 1 0.875 0.875 0.5
321 1 1 7.81336e-10 0.625
322 1 0.125 7.81336e-10 0.625
323 1 0.25 7.81336e-10 0.625
324 1 0.375 7.81336e-10 0.625
325 1 0.5 7.81336e-10 0.625
326 1 0.625 7.81336e-10 0.625
327 1 0.75 7.81336e-10 0.625
328 1 0.875 7.81336e-10 0.625
329 1 1 0.125 0.625
330 1 0.125 0.125 0.625
331 1 0.25 0.125 0.625
332 1 0.375 0.125 0.625
333 1 0.5 0.125 0.625
334 1 0.625 0.125 0.625
335 1 0.75 0.125 0.625
336 1 0.875 0.125 0.625
337 1 1 0.25 0.625
338 1 0.125 0.25 0.625
339 1 0.25 0.25 0.625
340 1 0.375 0.25 0.625
341 1 0.5 0.25 0.625
342 1 0.625 0.25 0.625
343 1 0.75 0.25 0.625
344 1 0.875 0.25 0.625
345 1 1 0.375 0.625
346 1 0.125 0.375 0.625
347 1 0.25 0.375 0.625
348 1 0.375 0.375 0.625
349 1 0.5 0.375 0.625
350 1 0.625 0.375 0.625
351 1 0.75 0.375 0.625
352 1 0.875 0.375 0.625
353 1 1 0.5 0.625
354 1 0.125 0.5 0.625
355 1 0.25 0.5 0.625
356 1 0.375 0.5 0.625
357 1 0.5 0.5 0.625
358 1 0.625 0.5 0.625
359 1 0.75 0.5 0.625
360 1 0.875 0.5 0.625
361 1 1 0.625 0.625
362 1 0.125 0.625 0.625
363 1 0.25 0.625 0.625
364 1 0.375 0.625 0.625
365 1 0.5 0.625 0.625
366 1 0.625 0.625 0.625
367 1 0.75 0.625 0.625
368 1 0.875 0.625 0.625
369 1 1 0.75 0.625
370 1 0.125 0.75 0.625
371 1 0.25 0.75 0.625
372 1 0.375 0.75 0.625
373 1 0.5 0.75 0.625
374 1 0.625 0.75 0.625
375 1 0.75 0.75 0.625
376 1 0.875 0.75 0.625
377 1 1 0.875 0.625
378 1 0.125 0.875 0.625
379 1 0.25 0.875 0.625
380 1 0.375 0.875 0.625
381 1 0.5 0.875 0.625
382 1 0.625 0.875 0.625
383 1 0.75 0.875 0.625
384 1 0.875 0.875 0.625
385 1 1 3.40138e-10 0.75
386 1 0.125 3.40138e-10 0.75
387 1 0.25 3.40138e-10 0.75
388 1 0.375 3.40138e-10 0.75
389 1 0.5 3.40138e-10 0.75
390 1 0.625 3.40138e-10 0.75
391 1 0.75 3.40138e-10 0.75
392 1 0.875 3.40138e-10 0.75
393 1 1 0.125 0.75
394 1 0.125 0.125 0.75
395 1 0.25 0.125 0.75
396 1 0.375 0.125 0.75
397 1 0.5 0.125 0.75
398 1 0.625 0.125 0.75
399 1 0.75 0.125 0.75
400 1 0.875 0.125 0.75
401 1 1 0.25 0.75
402 1 0.125 0.25 0.75
403 1 0.25 0.25 0.75
404 1 0.375 0.25 0.75
405 1 0.5 0.25 0.75
406 1 0.625 0.25 0.75
407 1 0.75 0.25 0.75
408 1 0.875 0.25 0.75
409 1 1 0.375 0.75
410 1 0.125 0.375 0.75
411 1 0.25 0.375 0.75
412 1 0.375 0.375 0.75
413 1 0.5 0.375 0.75
414 1 0.625 0.375 0.75
415 1 0.75 0.375 0.75
416 1 0.875 0.375 0.75
417 1 1 0.5 0.75
418 1 0.125 0.5 0.75
419 1 0.25 0.5 0.75
420 1 0.375 0.5 0.75
421 1 0.5 0.5 0.75
422 1 0.625 0.5 0.75
423 1 0.75 0.5 0.75
424 1 0.875 0.5 0.75
425 1 1 0.625 0.75
426 1 0.125 0.625 0.75
427 1 0.25 0.625 0.75
428 1 0.375 0.625 0.75
429 1 0.5 0.625 0.75
430 1 0.625 0.625 0.75
431 1 0.75 0.625 0.75
432 1 0.875 0.625 0.75
433 1 1 0.75 0.75
434 1 0.125 0.75 0.75
435 1 0.25 0.75 0.75
436 1 0.375 0.75 0.75
437 1 0.5 0.75 0.75
438 1 0.625 0.75 0.75
439 1 0.75 0.75 0.75
440 1 0.875 0.75 0.75
441 1 1 0.875 0.75
442 1 0.125 0.875 0.75
443 1 0.25 0.875 0.75
444 1 0.375 0.875 0.75
445 1 0.5 0.875 0.75
446 1 0.625 0.875 0.75
447 1 0.75 0.875 0.75
448 1 0.875 0.875 0.75
449 1 1 4.04389e-10 0.875
450 1 0.125 4.04389e-10 0.875
451 1 0.25 4.04389e-10 0.875
452 1 0.375 4.04389e-10 0.875
453 1 0.5 4.04389e-10 0.875
454 1 0.625 4.04389e-10 0.875
455 1 0.75 4.04389e-10 0.875
456 1 0.875 4.04389e-10 0.875
457 1 1 0.125 0.875
458 1 0.125 0.125 0.875
459 1 0.25 0.125 0.875
460 1 0.375 0.125 0.875
461 1 0.5 0.125 0.875
462 1 0.625 0.125 0.875
463 1 0.75 0.125 0.875
464 1 0.875 0.125 0.875
465 1 1 0.25 0.875
466 1 0.125 0.25 0.875
467 1 0.25 0.25 0.875
468 1 0.375 0.25 0.875
469 1 0.5 0.25 0.875
470 1 0.625 0.25 0.875
471 1 0.75 0.25 0.875
472 1 0.875 0.25 0.875
473 1 1 0.375 0.875
474 1 0.125 0.375 0.875
475 1 0.25 0.375 0.875
476 1 0.375 0.375 0.875
477 1 0.5 0.375 0.875
478 1 0.625 0.375 0.875
479 1 0.75 0.375 0.875
480 1 0.875 0.375 0.875
481 1 1 0.5 0.875
482 1 0.125 0.5 0.875
483 1 0.25 0.5 0.875
484 1 0.375 0.5 0.875
485 1 0.5 0.5 0.875
486 1 0.625 0.5 0.875
487 1 0.75 0.5 0.875
488 1 0.875 0.5 0.875
489 1 1 0.625 0.875
490 1 0.125 0.625 0.875
491 1 0.25 0.625 0.875
492 1 0.375 0.625 0.875
493 1 0.5 0.625 0.875
494 1 0.625 0.625 0.875
495 1 0.75 0.625 0.875
496 1 0.875 0.625 0.875
497 1 1 0.75 0.875
498 1 0.125 0.75 0.875
499 1 0.25 0.75 0.875
500 1 0.375 0.75 0.875
501 1 0.5 0.75 0.875
502 1 0.625 0.75 0.875
503 1 0.75 0.75 0.875
504 1 0.875 0.75 0.875
505 1 1 0.875 0.875
506 1 0.125 0.875 0.875
507 1 0.25 0.875 0.875
508 1 0.375 0.875 0.875
509 1 0.5 0.875 0.875
510 1 0.625 0.875 0.875
511 1 0.75 0.875 0.875
512 1 0.875 0.875 0.875
ITEM: TIMESTEP
50000
ITEM: NUMBER OF ATOMS
512
ITEM: BOX BOUNDS xy xz yz pp pp pp
-5.5210022408433090e-02 4.6312565228565063e+01 1.1591943883078425e+01
-4.7813281837733257e-02 2.6722634013047113e+01 1.1591943883078425e+01
-4.5078794397673150e-02 1.8884486014397936e+01 6.6926118212093515e+00
ITEM: ATOMS id type xs ys zs
1 1 -0.00413153 0.00161966 0.00612253
2 1 0.121441 -0.00390232 0.00352977
3 1 0.244152 0.000162867 -0.0012771
4 1 0.371438 -0.00618613 0.00598606
5 1 0.503561 0.00378711 -0.00808893
6 1 0.626657 -0.00275189 -0.00195605
7 1 0.741936 0.0115026 -0.00235884
8 1 0.869531 -0.00306429 0.00260015
9 1 0.991574 0.131194 0.0051536
10 1 0.122715 0.118843 0.00467558
11 1 0.255842 0.115289 0.000172499
12 1 0.375938 0.117401 0.00934072
13 1 0.494194 0.124117 -0.0018822
14 1 0.620401 0.130504 0.00348443
15 1 0.738651 0.1389 5.00544e-05
16 1 0.86847 0.128974 -0.00116531
17 1 0.99652 0.252609 0.00402985
18 1 0.116779 0.233779 0.00833492
19 1 0.255772 0.239769 -0.000328646
20 1 0.378237 0.244227 -0.00146174
21 1 0.490502 0.251951 0.00898016
22 1 0.612387 0.249691 0.00849126
23 1 0.741275 0.255874 -0.000173301
24 1 0.871021 0.24715 -0.00348386
25 1 0.992525 0.371151 0.00208802
26 1 0.1204 0.363698 -0.00103111
27 1 0.258129 0.370784 -0.00385782
28 1 0.369003 0.375017 -0.000268868
29 1 0.501254 0.378275 -0.0115848
30 1 0.627337 0.375156 -0.00821715
31 1 0.754597 0.369437 -0.00231684
32 1 0.867761 0.374186 0.00296043
33 1 0.999343 0.495461 -0.00323178
34 1 0.124427 0.493305 -0.00518865
35 1 0.246628 0.498168 -0.00493883
36 1 0.38071 0.507996 -0.0110379
37 1 0.497512 0.502364 -0.00596311
38 1 0.622771 0.497266 -0.00687819
39 1 0.744488 0.497175 -0.00528269
40 1 0.873346 0.496471 -0.00186134
41 1 1.00006 0.621283 0.00396169
42 1 0.117851 0.625628 0.0026842
43 1 0.24679 0.628692 -0.00488081
44 1 0.38042 0.627197 -0.00102879
45 1 0.505009 0.623545 -0.00276467
46 1 0.633248 0.630137 -0.00427777
47 1 0.758142 0.61387 0.00253739
48 1 0.875888 0.621133 -0.000322439
49 1 1.00542 0.749677 0.00636614
50 1 0.129023 0.753131 -0.00279189
51 1 0.251123 0.749924 0.00404767
52 1 0.378405 0.751577 0.00248034
53 1 0.509727 0.744609 0.00466066
54 1 0.628999 0.749394 0.00865202
55 1 0.748689 0.747591 -0.00286512
56 1 0.878097 0.747901 0.00124078
57 1 0.999666 0.874807 0.000285709
58 1 0.128155 0.872296 -0.00146782
59 1 0.236805 0.876303 0.010848
60 1 0.383652 0.858431 0.0139967
61 1 0.499479 0.87142 -0.00296965
62 1 0.630401 0.869395 0.00557717
63 1 0.748072 0.881515 -0.00244434
64 1 0.877788 0.876356 0.00402893
65 1 0.994515 0.00819813 0.1289
66 1 0.121901 0.000641623 0.133868
67 1 0.25596 -0.00524852 0.12743
68 1 0.379583 -0.00363478 0.127344
69 1 0.519167 -0.00880101 0.115087
70 1 0.628694 0.00435387 0.125694
71 1 0.753516 -0.000722325 0.125778
72 1 0.871763 0.0138639 0.122963
73 1 1.00481 0.126056 0.124361
74 1 0.126224 0.117992 0.134465
75 1 0.249692 0.123495 0.133951
76 1 0.373062 0.116027 0.130996
77 1 0.493265 0.126961 0.123852
78 1 0.609407 0.127981 0.130024
79 1 0.746893 0.129047 0.116494
80 1 0.878298 0.125594 0.126569
81 1 0.996216 0.25247 0.12805
82 1 0.122285 0.241736 0.128379
83 1 0.24514 0.255364 0.119976
84 1 0.368805 0.256584 0.123078
85 1 0.495071 0.24841 0.13031
86 1 0.618293 0.250535 0.124404
87 1 0.751309 0.24569 0.12075
88 1 0.874286 0.256745 0.125419
89 1 1.00947 0.366924 0.122432
90 1 0.123008 0.369837 0.116366
91 1 0.244373 0.376004 0.114604
92 1 0.377187 0.376043 0.118839
93 1 0.502448 0.375033 0.12199
94 1 0.623259 0.380432 0.123021
95 1 0.748511 0.379897 0.123562
96 1 0.869701 0.386412 0.115857
97 1 1.00708 0.496161 0.12538
98 1 0.130701 0.495074 0.119437
99 1 0.253772 0.505616 0.106702
100 1 0.365007 0.506042 0.116786
101 1 0.500358 0.502915 0.118993
102 1 0.629265 0.499597 0.12113
103 1 0.750013 0.501269 0.129927
104 1 0.885255 0.501644 0.123228
105 1 0.999217 0.619222 0.12335
106 1 0.124284 0.628643 0.120728
107 1 0.252397 0.624022 0.115228
108 1 0.377054 0.627235 0.12232
109 1 0.501916 0.627498 0.119262
110 1 0.62897 0.620526 0.122932
111 1 0.751811 0.62791 0.121028
112 1 0.875565 0.628894 0.119587
113 1 1.00707 0.753733 0.119647
114 1 0.124345 0.756351 0.126666
115 1 0.255641 0.745943 0.131305
116 1 0.368588 0.751883 0.130107
117 1 0.491343 0.746072 0.130701
118 1 0.620091 0.758649 0.131216
119 1 0.757098 0.758083 0.124146
120 1 0.877705 0.75296 0.12855
121 1 1.00918 0.879292 0.116536
122 1 0.124361 0.872206 0.126255
123 1 0.244552 0.874439 0.130139
124 1 0.366101 0.878123 0.126678
125 1 0.495446 0.868756 0.121324
126 1 0.629971 0.874197 0.126265
127 1 0.762544 0.87982 0.125209
128 1 0.877493 0.875996 0.124712
129 1 0.984942 0.00411864 0.259874
130 1 0.124529 -0.00163228 0.254417
131 1 0.248941 -0.000344732 0.249873
132 1 0.369004 0.00584512 0.251257
133 1 0.504644 0.00169203 0.250381
134 1 0.625092 0.00663781 0.248398
135 1 0.751075 0.0101329 0.243227
136 1 0.873503 0.00340418 0.249122
137 1 0.999137 0.118411 0.265194
138 1 0.113846 0.125892 0.262416
139 1 0.242196 0.124241 0.252204
140 1 0.370701 0.1274 0.250297
141 1 0.492336 0.12744 0.249625
142 1 0.630161 0.1285 0.243309
143 1 0.752595 0.123504 0.250241
144 1 0.874903 0.126262 0.248725
145 1 0.997691 0.243601 0.249852
146 1 0.120161 0.254862 0.249676
147 1 0.236739 0.261409 0.248489
148 1 0.367318 0.248282 0.253337
149 1 0.487804 0.261024 0.250093
150 1 0.626338 0.255931 0.251844
151 1 0.750492 0.252296 0.249951
152 1 0.875121 0.251302 0.245359
153 1 0.9974 0.367374 0.260089
154 1 0.123025 0.372907 0.252454
155 1 0.245769 0.383295 0.240202
156 1 0.37726 0.371802 0.2483
157 1 0.501942 0.375082 0.245292
158 1 0.611278 0.389589 0.247767
159 1 0.739769 0.384038 0.246693
160 1 0.871517 0.371084 0.245035
161 1 0.998961 0.496696 0.251828
162 1 0.119804 0.507335 0.243994
163 1 0.255463 0.500416 0.241695
164 1 0.377446 0.503973 0.245363
165 1 0.493609 0.50976 0.237827
166 1 0.623078 0.500934 0.255701
167 1 0.750802 0.501025 0.248527
168 1 0.873685 0.507209 0.249646
169 1 0.999856 0.632585 0.248667
170 1 0.137177 0.618815 0.246466
171 1 0.258724 0.626482 0.249508
172 1 0.373919 0.631026 0.248738
173 1 0.497056 0.623198 0.253896
174 1 0.62229 0.627353 0.252666
175 1 0.750282 0.627149 0.24544
176 1 0.880157 0.621325 0.239508
177 1 0.993962 0.75716 0.246546
178 1 0.128493 0.753828 0.245288
179 1 0.242812 0.753482 0.26012
180 1 0.379939 0.747534 0.248934
181 1 0.490987 0.755717 0.255235
182 1 0.627697 0.749806 0.252599
183 1 0.755132 0.742694 0.251961
184 1 0.873784 0.75257 0.246547
185 1 1.01148 0.873934 0.243298
186 1 0.121037 0.883945 0.252914
187 1 0.247641 0.878169 0.252484
188 1 0.376353 0.885082 0.239357
189 1 0.49245 0.884641 0.246759
190 1 0.630401 0.878411 0.253535
191 1 0.752804 0.876259 0.256565
192 1 0.877398 0.875135 0.246296
193 1 0.995975 9.71793e-06 0.383235
194 1 0.118785 0.00348329 0.380487
195 1 0.246215 -0.000422567 0.385374
196 1 0.367191 0.00119886 0.376745
197 1 0.49451 -0.00110279 0.37864
198 1 0.629459 0.00506917 0.369964
199 1 0.744994 0.012405 0.371293
200 1 0.868335 0.00436429 0.376768
201 1 0.993899 0.12322 0.383285
202 1 0.11518 0.129254 0.38638
203 1 0.236778 0.133043 0.380153
204 1 0.376233 0.128266 0.375787
205 1 0.499681 0.127237 0.379122
206 1 0.620347 0.128231 0.375474
207 1 0.742831 0.130062 0.369011
208 1 0.87114 0.12219 0.376835
209 1 0.994913 0.256539 0.387217
210 1 0.123462 0.255984 0.374904
211 1 0.249459 0.246306 0.377727
212 1 0.378347 0.238471 0.378785
213 1 0.505967 0.243358 0.368833
214 1 0.622409 0.254112 0.376836
215 1 0.758216 0.251452 0.369441
216 1 0.878809 0.248416 0.378133
217 1 0.994141 0.37151 0.384956
218 1 0.123439 0.375452 0.368651
219 1 0.25813 0.370798 0.373578
220 1 0.376169 0.37749 0.366776
221 1 0.492759 0.381298 0.376864
222 1 0.623663 0.373067 0.380411
223 1 0.746944 0.369511 0.385013
224 1 0.872135 0.376304 0.373325
225 1 1.00727 0.496586 0.373562
226 1 0.141109 0.493779 0.370671
227 1 0.252476 0.504223 0.369833
228 1 0.374681 0.501652 0.373257
229 1 0.502899 0.497439 0.371451
230 1 0.621803 0.496846 0.377957
231 1 0.749642 0.503638 0.374773
232 1 0.872999 0.498166 0.376975
233 1 1.01609 0.622705 0.36425
234 1 0.124551 0.636171 0.36505
235 1 0.251267 0.628374 0.380667
236 1 0.373154 0.627175 0.375418
237 1 0.486792 0.631698 0.369231
238 1 0.622065 0.621081 0.378249
239 1 0.756064 0.627834 0.373803
240 1 0.88099 0.615985 0.364509
241 1 0.999853 0.752173 0.373234
242 1 0.126286 0.754945 0.37448
243 1 0.244352 0.751414 0.382224
244 1 0.376183 0.764325 0.369579
245 1 0.500152 0.745688 0.37443
246 1 0.627421 0.747217 0.371629
247 1 0.752595 0.7471 0.379418
248 1 0.875538 0.753556 0.373524
249 1 0.992098 0.873937 0.37867
250 1 0.118596 0.87747 0.377529
251 1 0.252072 0.872893 0.379175
252 1 0.367611 0.884826 0.373461
253 1 0.505417 0.871035 0.369932
254 1 0.635432 0.878198 0.367539
255 1 0.752872 0.878 0.37661
256 1 0.876256 0.874717 0.373714
257 1 0.999258 -0.00122744 0.506532
258 1 0.127012 -0.00636788 0.501545
259 1 0.247079 0.0126239 0.498583
260 1 0.378236 0.00146558 0.495011
261 1 0.502034 -0.00509561 0.493279
262 1 0.62289 0.00206779 0.494997
263 1 0.751337 -0.00498084 0.49822
264 1 0.875399 -0.00576452 0.506272
265 1 0.993405 0.128626 0.506456
266 1 0.125315 0.119332 0.509488
267 1 0.243764 0.1335 0.501203
268 1 0.374536 0.118297 0.503083
269 1 0.497962 0.133611 0.499382
270 1 0.630328 0.121022 0.497086
271 1 0.745075 0.117456 0.507196
272 1 0.869517 0.127975 0.501307
273 1 1.00495 0.252017 0.504111
274 1 0.127992 0.248976 0.494538
275 1 0.242663 0.255835 0.500695
276 1 0.370319 0.248357 0.502607
277 1 0.497474 0.256492 0.496141
278 1 0.628019 0.24186 0.501763
279 1 0.753346 0.243414 0.500297
280 1 0.878367 0.249737 0.501245
281 1 1.00726 0.369738 0.507739
282 1 0.125822 0.376461 0.498007
283 1 0.249421 0.37651 0.491997
284 1 0.370982 0.389272 0.491811
285 1 0.499399 0.372242 0.498192
286 1 0.625632 0.367872 0.501838
287 1 0.751894 0.373984 0.495314
288 1 0.877832 0.375103 0.507568
289 1 1.01192 0.503562 0.49082
290 1 0.12889 0.506813 0.494753
291 1 0.248059 0.510191 0.492049
292 1 0.375169 0.511783 0.495598
293 1 0.504386 0.50314 0.4964
294 1 0.632507 0.498649 0.500827
295 1 0.752884 0.497152 0.504973
296 1 0.883465 0.501456 0.493968
297 1 1.00621 0.63167 0.49665
298 1 0.127977 0.626104 0.502882
299 1 0.252108 0.633771 0.504222
300 1 0.373375 0.631205 0.49894
301 1 0.504464 0.619719 0.501378
302 1 0.639876 0.618758 0.49309
303 1 0.765855 0.632634 0.499043
304 1 0.892317 0.628736 0.486838
305 1 1.00486 0.753264 0.508513
306 1 0.132764 0.749482 0.501985
307 1 0.256243 0.755855 0.505906
308 1 0.384283 0.746805 0.497267
309 1 0.503204 0.747236 0.497059
310 1 0.623376 0.746718 0.496787
311 1 0.755011 0.755218 0.490652
312 1 0.87871 0.750852 0.501418
313 1 0.998524 0.872416 0.509492
314 1 0.12643 0.872835 0.509432
315 1 0.254306 0.880046 0.498361
316 1 0.376191 0.871332 0.502893
317 1 0.497638 0.866265 0.502873
318 1 0.628752 0.874209 0.496421
319 1 0.752514 0.876312 0.503586
320 1 0.871618 0.877457 0.498394
321 1 0.998781 -0.00419777 0.632132
322 1 0.127215 0.00326177 0.620337
323 1 0.255258 0.000824172 0.629826
324 1 0.372909 0.000437801 0.630383
325 1 0.495452 0.0051692 0.612418
326 1 0.613729 0.00147004 0.627059
327 1 0.748689 0.000529109 0.621617
328 1 0.872178 0.00158596 0.625169
329 1 0.992024 0.123523 0.633358
330 1 0.113037 0.135114 0.635585
331 1 0.23791 0.1353 0.629434
332 1 0.365489 0.132401 0.627604
333 1 0.497041 0.12669 0.623031
334 1 0.619367 0.127264 0.627598
335 1 0.742913 0.117249 0.626678
336 1 0.864222 0.120696 0.636927
337 1 1.00274 0.254337 0.632554
338 1 0.123883 0.246484 0.634381
339 1 0.246811 0.260694 0.619267
340 1 0.3644 0.257299 0.622795
341 1 0.485124 0.246867 0.629623
342 1 0.625004 0.251116 0.617023
343 1 0.751623 0.244365 0.623388
344 1 0.868813 0.252438 0.623228
345 1 1.00506 0.381389 0.623575
346 1 0.123152 0.388355 0.616439
347 1 0.251984 0.383255 0.616127
348 1 0.375397 0.378155 0.618065
349 1 0.497299 0.36738 0.621623
350 1 0.630148 0.37144 0.626705
351 1 0.754991 0.369198 0.62708
352 1 0.872784 0.378347 0.624317
353 1 0.997687 0.510688 0.619651
354 1 0.128673 0.506753 0.619902
355 1 0.257231 0.501436 0.6241
356 1 0.377986 0.503157 0.623127
357 1 0.499591 0.498974 0.622539
358 1 0.629233 0.495462 0.628232
359 1 0.758083 0.499311 0.620289
360 1 0.87942 0.51118 0.618768
361 1 1.00159 0.632237 0.624003
362 1 0.126711 0.615042 0.635372
363 1 0.248741 0.622753 0.633696
364 1 0.377471 0.621834 0.624706
365 1 0.509086 0.619856 0.61575
366 1 0.630794 0.624815 0.614148
367 1 0.759397 0.627215 0.61788
368 1 0.878278 0.636456 0.622064
369 1 1.00838 0.750246 0.633509
370 1 0.130371 0.753455 0.632242
371 1 0.251611 0.74943 0.633731
372 1 0.375552 0.748682 0.634003
373 1 0.498942 0.747824 0.626203
374 1 0.633369 0.742024 0.619065
375 1 0.750274 0.749705 0.620767
376 1 0.885963 0.75349 0.627316
377 1 1.00043 0.872116 0.633473
378 1 0.132433 0.876342 0.62903
379 1 0.247733 0.883546 0.632138
380 1 0.376133 0.875225 0.626432
381 1 0.497647 0.875796 0.620347
382 1 0.621976 0.876422 0.624993
383 1 0.754461 0.87737 0.623296
384 1 0.876437 0.877751 0.628805
385 1 1.00287 -0.00134866 0.75507
386 1 0.114134 -0.00287019 0.757584
387 1 0.237229 0.00219442 0.755266
388 1 0.373948 -0.00715964 0.749412
389 1 0.494735 0.00278613 0.747304
390 1 0.634454 -0.00996652 0.745546
391 1 0.758971 -0.00973622 0.752441
392 1 0.886688 -0.0181786 0.75131
393 1 0.986387 0.130022 0.758685
394 1 0.112732 0.121992 0.765177
395 1 0.243105 0.11484 0.755334
396 1 0.380665 0.121165 0.752693
397 1 0.505202 0.128388 0.743998
398 1 0.628889 0.115496 0.753392
399 1 0.745226 0.118105 0.753901
400 1 0.867901 0.119695 0.75613
401 1 0.987669 0.250531 0.761096
402 1 0.121172 0.255804 0.752401
403 1 0.255481 0.244057 0.747412
404 1 0.374191 0.241375 0.746035
405 1 0.495201 0.253843 0.751409
406 1 0.625357 0.247592 0.741797
407 1 0.756472 0.241484 0.748442
408 1 0.87632 0.248915 0.741959
409 1 1.00477 0.372949 0.748953
410 1 0.123125 0.375786 0.749009
411 1 0.250812 0.364926 0.74594
412 1 0.370297 0.377791 0.750435
413 1 0.499583 0.379341 0.739159
414 1 0.625542 0.379936 0.73831
415 1 0.742464 0.383773 0.747865
416 1 0.879191 0.38133 0.738989
417 1 0.999809 0.499938 0.747161
418 1 0.119366 0.49683 0.748079
419 1 0.25048 0.492969 0.753629
420 1 0.374629 0.493639 0.747558
421 1 0.496719 0.496959 0.741721
422 1 0.621203 0.501304 0.754406
423 1 0.755617 0.509304 0.741539
424 1 0.882397 0.500685 0.743672
425 1 1.00736 0.623282 0.751368
426 1 0.130228 0.619424 0.757198
427 1 0.259832 0.627619 0.747925
428 1 0.377929 0.626413 0.747613
429 1 0.512748 0.624046 0.7439
430 1 0.636139 0.627231 0.740502
431 1 0.749658 0.625744 0.752695
432 1 0.879794 0.620897 0.748599
433 1 1.00431 0.740102 0.763587
434 1 0.132175 0.743336 0.754411
435 1 0.253807 0.751373 0.749829
436 1 0.373858 0.746016 0.759038
437 1 0.502087 0.746187 0.748427
438 1 0.619892 0.750243 0.748407
439 1 0.750876 0.75528 0.745733
440 1 0.88778 0.741119 0.755746
441 1 1.00754 0.869594 0.748754
442 1 0.123515 0.871452 0.754679
443 1 0.253903 0.868597 0.754413
444 1 0.372253 0.882942 0.750075
445 1 0.497495 0.887306 0.739385
446 1 0.627806 0.87114 0.745547
447 1 0.758513 0.864839 0.751215
448 1 0.878651 0.86614 0.763525
449 1 0.996137 -0.00369114 0.885249
450 1 0.114123 -0.00304831 0.878665
451 1 0.251606 -0.0100212 0.876721
452 1 0.37517 -0.00524225 0.880993
453 1 0.512315 -0.00507457 0.869046
454 1 0.624479 -0.00672775 0.876555
455 1 0.746166 -0.00317314 0.873666
456 1 0.862653 -0.00093827 0.869203
457 1 0.991233 0.124493 0.881623
458 1 0.129631 0.113262 0.881869
459 1 0.247916 0.131341 0.869678
460 1 0.38313 0.120101 0.875475
461 1 0.502774 0.126653 0.867919
462 1 0.614183 0.130147 0.876614
463 1 0.746514 0.128692 0.877332
464 1 0.863549 0.118999 0.886272
465 1 0.995261 0.242068 0.880364
466 1 0.122973 0.242562 0.872404
467 1 0.236325 0.248758 0.881499
468 1 0.371478 0.240301 0.871252
469 1 0.499363 0.253354 0.874887
470 1 0.622667 0.257993 0.863591
471 1 0.741476 0.251455 0.875313
472 1 0.872999 0.246138 0.875592
473 1 0.999874 0.374743 0.881206
474 1 0.126341 0.369797 0.873141
475 1 0.253808 0.364485 0.873043
476 1 0.378676 0.373622 0.871782
477 1 0.499167 0.378524 0.870252
478 1 0.626116 0.370105 0.87304
479 1 0.74517 0.375811 0.865776
480 1 0.881395 0.370828 0.874814
481 1 0.999331 0.502115 0.870469
482 1 0.132248 0.493411 0.876131
483 1 0.249486 0.496231 0.877378
484 1 0.382983 0.497049 0.871222
485 1 0.505144 0.495908 0.865376
486 1 0.622482 0.508589 0.874997
487 1 0.757909 0.490206 0.868353
488 1 0.883362 0.487956 0.874211
489 1 1.00211 0.607456 0.891404
490 1 0.123231 0.615338 0.882816
491 1 0.247 0.61559 0.881193
492 1 0.375776 0.618359 0.870463
493 1 0.494743 0.622124 0.874874
494 1 0.619433 0.627609 0.877066
495 1 0.755736 0.617492 0.869062
496 1 0.872114 0.625301 0.872358
497 1 1.00181 0.743324 0.888199
498 1 0.127995 0.748765 0.87387
499 1 0.247293 0.750095 0.877627
500 1 0.376625 0.753753 0.880243
501 1 0.49759 0.746865 0.872255
502 1 0.62164 0.749207 0.872464
503 1 0.746604 0.753667 0.876014
504 1 0.883706 0.740673 0.878639
505 1 0.995062 0.875174 0.868767
506 1 0.126541 0.869306 0.870549
507 1 0.253204 0.866616 0.882206
508 1 0.382591 0.878082 0.87857
509 1 0.507593 0.874363 0.868536
510 1 0.632887 0.869677 0.878085
511 1 0.753964 0.872791 0.877595
512 1 0.877136 0.868407 0.885787
ITEM: TIMESTEP
100000
ITEM: NUMBER OF ATOMS
512
ITEM: BOX BOUNDS xy xz yz pp pp pp
-5.8601934748732987e-02 4.6322740965666696e+01 1.1595335795459269e+01