ITEM: TIMESTEP
0
ITEM: NUMBER OF ATOMS
512
ITEM: BOX BOUNDS xy xz yz pp pp pp
0.0000000000000000e+00 4.6228203219999997e+01 1.1557050800000001e+01
0.0000000000000000e+00 2.6689865579999999e+01 1.1557050800000001e+01
0.0000000000000000e+00 1.8872584490000001e+01 6.6724663900000003e+00
ITEM: ATOMS id type xs ys zs
1 1 0 0 0
2 1 0.125004 0 0
3 1 0.250007 0 0
4 1 0.375011 0 0
5 1 0.500014 0 0
6 1 0.625018 0 0
7 1 0.750022 0 0
8 1 0.875025 0 0
9 1 1 0.125004 0
10 1 0.125004 0.125004 0
11 1 0.250007 0.125004 0
12 1 0.375011 0.125004 0
13 1 0.500014 0.125004 0
14 1 0.625018 0.125004 0
15 1 0.750022 0.125004 0
16 1 0.875025 0.125004 0
17 1 1 0.250007 0
18 1 0.125004 0.250007 0
19 1 0.250007 0.250007 0
20 1 0.375011 0.250007 0
21 1 0.500014 0.250007 0
22 1 0.625018 0.250007 0
23 1 0.750022 0.250007 0
24 1 0.875025 0.250007 0
25 1 1 0.375011 0
26 1 0.125004 0.375011 0
27 1 0.250007 0.375011 0
28 1 0.375011 0.375011 0
29 1 0.500014 0.375011 0
30 1 0.625018 0.375011 0
31 1 0.750022 0.375011 0
32 1 0.875025 0.375011 0
33 1 5.51848e-10 0.500014 0
34 1 0.125004 0.500014 0
35 1 0.250007 0.500014 0
36 1 0.375011 0.500014 0
37 1 0.500014 0.500014 0
38 1 0.625018 0.500014 0
39 1 0.750022 0.500014 0
40 1 0.875025 0.500014 0
41 1 1 0.625018 0
42 1 0.125004 0.625018 0
43 1 0.250007 0.625018 0
44 1 0.375011 0.625018 0
45 1 0.500014 0.625018 0
46 1 0.625018 0.625018 0
47 1 0.750022 0.625018 0
48 1 0.875025 0.625018 0
49 1 1.78817e-10 0.750022 0
50 1 0.125004 0.750022 0
51 1 0.250007 0.750022 0
52 1 0.375011 0.750022 0
53 1 0.500014 0.750022 0
54 1 0.625018 0.750022 0
55 1 0.750022 0.750022 0
56 1 0.875025 0.750022 0
57 1 3.90225e-10 0.875025 0
58 1 0.125004 0.875025 0
59 1 0.250007 0.875025 0
60 1 0.375011 0.875025 0
61 1 0.500014 0.875025 0
62 1 0.625018 0.875025 0
63 1 0.750022 0.875025 0
64 1 0.875025 0.875025 0
65 1 1 1 0.125004
66 1 0.125004 1 0.125004
67 1 0.250007 1 0.125004
68 1 0.375011 1 0.125004
69 1 0.500014 1 0.125004
70 1 0.625018 1 0.125004
71 1 0.750022 1 0.125004
72 1 0.875025 1 0.125004
73 1 1 0.125004 0.125004
74 1 0.125004 0.125004 0.125004
75 1 0.250007 0.125004 0.125004
76 1 0.375011 0.125004 0.125004
77 1 0.500014 0.125004 0.125004
78 1 0.625018 0.125004 0.125004
79 1 0.750022 0.125004 0.125004
80 1 0.875025 0.125004 0.125004
81 1 1 0.250007 0.125004
82 1 0.125004 0.250007 0.125004
83 1 0.250007 0.250007 0.125004
84 1 0.375011 0.250007 0.125004
85 1 0.500014 0.250007 0.125004
86 1 0.625018 0.250007 0.125004
87 1 0.750022 0.250007 0.125004
88 1 0.875025 0.250007 0.125004
89 1 1 0.375011 0.125004
90 1 0.125004 0.375011 0.125004
91 1 0.250007 0.375011 0.125004
92 1 0.375011 0.375011 0.125004
93 1 0.500014 0.375011 0.125004
94 1 0.625018 0.375011 0.125004
95 1 0.750022 0.375011 0.125004
96 1 0.875025 0.375011 0.125004
97 1 1 0.500014 0.125004
98 1 0.125004 0.500014 0.125004
99 1 0.250007 0.500014 0.125004
100 1 0.375011 0.500014 0.125004
101 1 0.500014 0.500014 0.125004
102 1 0.625018 0.500014 0.125004
103 1 0.750022 0.500014 0.125004
104 1 0.875025 0.500014 0.125004
105 1 1 0.625018 0.125004
106 1 0.125004 0.625018 0.125004
107 1 0.250007 0.625018 0.125004
108 1 0.375011 0.625018 0.125004
109 1 0.500014 0.625018 0.125004
110 1 0.625018 0.625018 0.125004
111 1 0.750022 0.625018 0.125004
112 1 0.875025 0.625018 0.125004
113 1 1 0.750022 0.125004
114 1 0.125004 0.750022 0.125004
115 1 0.250007 0.750022 0.125004
116 1 0.375011 0.750022 0.125004
117 1 0.500014 0.750022 0.125004
118 1 0.625018 0.750022 0.125004
119 1 0.750022 0.750022 0.125004
120 1 0.875025 0.750022 0.125004
121 1 1 0.875025 0.125004
122 1 0.125004 0.875025 0.125004
123 1 0.250007 0.875025 0.125004
124 1 0.375011 0.875025 0.125004
125 1 0.500014 0.875025 0.125004
126 1 0.625018 0.875025 0.125004
127 1 0.750022 0.875025 0.125004
128 1 0.875025 0.875025 0.125004
129 1 1 1 0.250007
130 1 0.125004 1 0.250007
131 1 0.250007 1 0.250007
132 1 0.375011 1 0.250007
133 1 0.500014 1 0.250007
134 1 0.625018 1 0.250007
135 1 0.750022 1 0.250007
136 1 0.875025 1 0.250007
137 1 1 0.125004 0.250007
138 1 0.125004 0.125004 0.250007
139 1 0.250007 0.125004 0.250007
140 1 0.375011 0.125004 0.250007
141 1 0.500014 0.125004 0.250007
142 1 0.625018 0.125004 0.250007
143 1 0.750022 0.125004 0.250007
144 1 0.875025 0.125004 0.250007
145 1 1 0.250007 0.250007
146 1 0.125004 0.250007 0.250007
147 1 0.250007 0.250007 0.250007
148 1 0.375011 0.250007 0.250007
149 1 0.500014 0.250007 0.250007
150 1 0.625018 0.250007 0.250007
151 1 0.750022 0.250007 0.250007
152 1 0.875025 0.250007 0.250007
153 1 1 0.375011 0.250007
154 1 0.125004 0.375011 0.250007
155 1 0.250007 0.375011 0.250007
156 1 0.375011 0.375011 0.250007
157 1 0.500014 0.375011 0.250007
158 1 0.625018 0.375011 0.250007
159 1 0.750022 0.375011 0.250007
160 1 0.875025 0.375011 0.250007
161 1 1 0.500014 0.250007
162 1 0.125004 0.500014 0.250007
163 1 0.250007 0.500014 0.250007
164 1 0.375011 0.500014 0.250007
165 1 0.500014 0.500014 0.250007
166 1 0.625018 0.500014 0.250007
167 1 0.750022 0.500014 0.250007
168 1 0.875025 0.500014 0.250007
169 1 1 0.625018 0.250007
170 1 0.125004 0.625018 0.250007
171 1 0.250007 0.625018 0.250007
172 1 0.375011 0.625018 0.250007
173 1 0.500014 0.625018 0.250007
174 1 0.625018 0.625018 0.250007
175 1 0.750022 0.625018 0.250007
176 1 0.875025 0.625018 0.250007
177 1 1 0.750022 0.250007
178 1 0.125004 0.750022 0.250007
179 1 0.250007 0.750022 0.250007
180 1 0.375011 0.750022 0.250007
181 1 0.500014 0.750022 0.250007
182 1 0.625018 0.750022 0.250007
183 1 0.750022 0.750022 0.250007
184 1 0.875025 0.750022 0.250007
185 1 1 0.875025 0.250007
186 1 0.125004 0.875025 0.250007
187 1 0.250007 0.875025 0.250007
188 1 0.375011 0.875025 0.250007
189 1 0.500014 0.875025 0.250007
190 1 0.625018 0.875025 0.250007
191 1 0.750022 0.875025 0.250007
192 1 0.875025 0.875025 0.250007
193 1 1 1 0.375011
194 1 0.125004 1 0.375011
195 1 0.250007 1 0.375011
196 1 0.375011 1 0.375011
197 1 0.500014 1 0.375011
198 1 0.625018 1 0.375011
199 1 0.750022 1 0.375011
200 1 0.875025 1 0.375011
201 1 1 0.125004 0.375011
202 1 0.125004 0.125004 0.375011
203 1 0.250007 0.125004 0.375011
204 1 0.375011 0.125004 0.375011
205 1 0.500014 0.125004 0.375011
206 1 0.625018 0.125004 0.375011
207 1 0.750022 0.125004 0.375011
208 1 0.875025 0.125004 0.375011
209 1 1 0.250007 0.375011
210 1 0.125004 0.250007 0.375011
211 1 0.250007 0.250007 0.375011
212 1 0.375011 0.250007 0.375011
213 1 0.500014 0.250007 0.375011
214 1 0.625018 0.250007 0.375011
215 1 0.750022 0.250007 0.375011
216 1 0.875025 0.250007 0.375011
217 1 1 0.375011 0.375011
218 1 0.125004 0.375011 0.375011
219 1 0.250007 0.375011 0.375011
220 1 0.375011 0.375011 0.375011
221 1 0.500014 0.375011 0.375011
222 1 0.625018 0.375011 0.375011
223 1 0.750022 0.375011 0.375011
224 1 0.875025 0.375011 0.375011
225 1 1 0.500014 0.375011
226 1 0.125004 0.500014 0.375011
227 1 0.250007 0.500014 0.375011
228 1 0.375011 0.500014 0.375011
229 1 0.500014 0.500014 0.375011
230 1 0.625018 0.500014 0.375011
231 1 0.750022 0.500014 0.375011
232 1 0.875025 0.500014 0.375011
233 1 1 0.625018 0.375011
234 1 0.125004 0.625018 0.375011
235 1 0.250007 0.625018 0.375011
236 1 0.375011 0.625018 0.375011
237 1 0.500014 0.625018 0.375011
238 1 0.625018 0.625018 0.375011
239 1 0.750022 0.625018 0.375011
240 1 0.875025 0.625018 0.375011
241 1 1 0.750022 0.375011
242 1 0.125004 0.750022 0.375011
243 1 0.250007 0.750022 0.375011
244 1 0.375011 0.750022 0.375011
245 1 0.500014 0.750022 0.375011
246 1 0.625018 0.750022 0.375011
247 1 0.750022 0.750022 0.375011
248 1 0.875025 0.750022 0.375011
249 1 1 0.875025 0.375011
250 1 0.125004 0.875025 0.375011
251 1 0.250007 0.875025 0.375011
252 1 0.375011 0.875025 0.375011
253 1 0.500014 0.875025 0.375011
254 1 0.625018 0.875025 0.375011
255 1 0.750022 0.875025 0.375011
256 1 0.875025 0.875025 0.375011
257 1 1 1 0.500014
258 1 0.125004 1 0.500014
259 1 0.250007 1 0.500014
260 1 0.375011 1 0.500014
261 1 0.500014 1 0.500014
262 1 0.625018 1 0.500014
263 1 0.750022 1 0.500014
264 1 0.875025 1 0.500014
265 1 1 0.125004 0.500014
266 1 0.125004 0.125004 0.500014
267 1 0.250007 0.125004 0.500014
268 1 0.375011 0.125004 0.500014
269 1 0.500014 0.125004 0.500014
270 1 0.625018 0.125004 0.500014
271 1 0.750022 0.125004 0.500014
272 1 0.875025 0.125004 0.500014
273 1 1 0.250007 0.500014
274 1 0.125004 0.250007 0.500014
275 1 0.250007 0.250007 0.500014
276 1 0.375011 0.250007 0.500014
277 1 0.500014 0.250007 0.500014
278 1 0.625018 0.250007 0.500014
279 1 0.750022 0.250007 0.500014
280 1 0.875025 0.250007 0.500014
281 1 1 0.375011 0.500014
282 1 0.125004 0.375011 0.500014
283 1 0.250007 0.375011 0.500014
284 1 0.375011 0.375011 0.500014
285 1 0.500014 0.375011 0.500014
286 1 0.625018 0.375011 0.500014
287 1 0.750022 0.375011 0.500014
288 1 0.875025 0.375011 0.500014
289 1 1 0.500014 0.500014
290 1 0.125004 0.500014 0.500014
291 1 0.250007 0.500014 0.500014
292 1 0.375011 0.500014 0.500014
293 1 0.500014 0.500014 0.500014
294 1 0.625018 0.500014 0.500014
295 1 0.750022 0.500014 0.500014
296 1 0.875025 0.500014 0.500014
297 1 1 0.625018 0.500014
298 1 0.125004 0.625018 0.500014
299 1 0.250007 0.625018 0.500014
300 1 0.375011 0.625018 0.500014
301 1 0.500014 0.625018 0.500014
302 1 0.625018 0.625018 0.500014
303 1 0.750022 0.625018 0.500014
304 1 0.875025 0.625018 0.500014
305 1 1 0.750022 0.500014
306 1 0.125004 0.750022 0.500014
307 1 0.250007 0.750022 0.500014
308 1 0.375011 0.750022 0.500014
309 1 0.500014 0.750022 0.500014
310 1 0.625018 0.750022 0.500014
311 1 0.750022 0.750022 0.500014
312 1 0.875025 0.750022 0.500014
313 1 1 0.875025 0.500014
314 1 0.125004 0.875025 0.500014
315 1 0.250007 0.875025 0.500014
316 1 0.375011 0.875025 0.500014
317 1 0.500014 0.875025 0.500014
318 1 0.625018 0.875025 0.500014
319 1 0.750022 0.875025 0.500014
320 1 0.875025 0.875025 0.500014
321 1 1 1 0.625018
322 1 0.125004 1 0.625018
323 1 0.250007 1 0.625018
324 1 0.375011 1 0.625018
325 1 0.500014 1 0.625018
326 1 0.625018 1 0.625018
327 1 0.750022 1 0.625018
328 1 0.875025 1 0.625018
329 1 1 0.125004 0.625018
330 1 0.125004 0.125004 0.625018
331 1 0.250007 0.125004 0.625018
332 1 0.375011 0.125004 0.625018
333 1 0.500014 0.125004 0.625018
334 1 0.625018 0.125004 0.625018
335 1 0.750022 0.125004 0.625018
336 1 0.875025 0.125004 0.625018
337 1 1 0.250007 0.625018
338 1 0.125004 0.250007 0.625018
339 1 0.250007 0.250007 0.625018
340 1 0.375011 0.250007 0.625018
341 1 0.500014 0.250007 0.625018
342 1 0.625018 0.250007 0.625018
343 1 0.750022 0.250007 0.625018
344 1 0.875025 0.250007 0.625018
345 1 1 0.375011 0.625018
346 1 0.125004 0.375011 0.625018
347 1 0.250007 0.375011 0.625018
348 1 0.375011 0.375011 0.625018
349 1 0.500014 0.375011 0.625018
350 1 0.625018 0.375011 0.625018
351 1 0.750022 0.375011 0.625018
352 1 0.875025 0.375011 0.625018
353 1 1 0.500014 0.625018
354 1 0.125004 0.500014 0.625018
355 1 0.250007 0.500014 0.625018
356 1 0.375011 0.500014 0.625018
357 1 0.500014 0.500014 0.625018
358 1 0.625018 0.500014 0.625018
359 1 0.750022 0.500014 0.625018
360 1 0.875025 0.500014 0.625018
361 1 1 0.625018 0.625018
362 1 0.125004 0.625018 0.625018
363 1 0.250007 0.625018 0.625018
364 1 0.375011 0.625018 0.625018
365 1 0.500014 0.625018 0.625018
366 1 0.625018 0.625018 0.625018
367 1 0.750022 0.625018 0.625018
368 1 0.875025 0.625018 0.625018
369 1 1 0.750022 0.625018
370 1 0.125004 0.750022 0.625018
371 1 0.250007 0.750022 0.625018
372 1 0.375011 0.750022 0.625018
373 1 0.500014 0.750022 0.625018
374 1 0.625018 0.750022 0.625018
375 1 0.750022 0.750022 0.625018
376 1 0.875025 0.750022 0.625018
377 1 1 0.875025 0.625018
378 1 0.125004 0.875025 0.625018
379 1 0.250007 0.875025 0.625018
380 1 0.375011 0.875025 0.625018
381 1 0.500014 0.875025 0.625018
382 1 0.625018 0.875025 0.625018
383 1 0.750022 0.875025 0.625018
384 1 0.875025 0.875025 0.625018
385 1 1 1 0.750022
386 1 0.125004 1 0.750022
387 1 0.250007 1 0.750022
388 1 0.375011 1 0.750022
389 1 0.500014 1 0.750022
390 1 0.625018 1 0.750022
391 1 0.750022 1 0.750022
392 1 0.875025 1 0.750022
393 1 1 0.125004 0.750022
394 1 0.125004 0.125004 0.750022
395 1 0.250007 0.125004 0.750022
396 1 0.375011 0.125004 0.750022
397 1 0.500014 0.125004 0.750022
398 1 0.625018 0.125004 0.750022
399 1 0.750022 0.125004 0.750022
400 1 0.875025 0.125004 0.750022
401 1 1 0.250007 0.750022
402 1 0.125004 0.250007 0.750022
403 1 0.250007 0.250007 0.750022
404 1 0.375011 0.250007 0.750022
405 1 0.500014 0.250007 0.750022
406 1 0.625018 0.250007 0.750022
407 1 0.750022 0.250007 0.750022
408 1 0.875025 0.250007 0.750022
409 1 1 0.375011 0.750022
410 1 0.125004 0.375011 0.750022
411 1 0.250007 0.375011 0.750022
412 1 0.375011 0.375011 0.750022
413 1 0.500014 0.375011 0.750022
414 1 0.625018 0.375011 0.750022
415 1 0.750022 0.375011 0.750022
416 1 0.875025 0.375011 0.750022
417 1 1 0.500014 0.750022
418 1 0.125004 0.500014 0.750022
419 1 0.250007 0.500014 0.750022
420 1 0.375011 0.500014 0.750022
421 1 0.500014 0.500014 0.750022
422 1 0.625018 0.500014 0.750022
423 1 0.750022 0.500014 0.750022
424 1 0.875025 0.500014 0.750022
425 1 1 0.625018 0.750022
426 1 0.125004 0.625018 0.750022
427 1 0.250007 0.625018 0.750022
428 1 0.375011 0.625018 0.750022
429 1 0.500014 0.625018 0.750022
430 1 0.625018 0.625018 0.750022
431 1 0.750022 0.625018 0.750022
432 1 0.875025 0.625018 0.750022
433 1 1 0.750022 0.750022
434 1 0.125004 0.750022 0.750022
435 1 0.250007 0.750022 0.750022
436 1 0.375011 0.750022 0.750022
437 1 0.500014 0.750022 0.750022
438 1 0.625018 0.750022 0.750022
439 1 0.750022 0.750022 0.750022
440 1 0.875025 0.750022 0.750022
441 1 1 0.875025 0.750022
442 1 0.125004 0.875025 0.750022
443 1 0.250007 0.875025 0.750022
444 1 0.375011 0.875025 0.750022
445 1 0.500014 0.875025 0.750022
446 1 0.625018 0.875025 0.750022
447 1 0.750022 0.875025 0.750022
448 1 0.875025 0.875025 0.750022
449 1 1 1 0.875025
450 1 0.125004 1 0.875025
451 1 0.250007 1 0.875025
452 1 0.375011 1 0.875025
453 1 0.500014 1 0.875025
454 1 0.625018 1 0.875025
455 1 0.750022 1 0.875025
456 1 0.875025 1 0.875025
457 1 1 0.125004 0.875025
458 1 0.125004 0.125004 0.875025
459 1 0.250007 0.125004 0.875025
460 1 0.375011 0.125004 0.875025
461 1 0.500014 0.125004 0.875025
462 1 0.625018 0.125004 0.875025
463 1 0.750022 0.125004 0.875025
464 1 0.875025 0.125004 0.875025
465 1 1 0.250007 0.875025
466 1 0.125004 0.250007 0.875025
467 1 0.250007 0.250007 0.875025
468 1 0.375011 0.250007 0.875025
469 1 0.500014 0.250007 0.875025
470 1 0.625018 0.250007 0.875025
471 1 0.750022 0.250007 0.875025
472 1 0.875025 0.250007 0.875025
473 1 1 0.375011 0.875025
474 1 0.125004 0.375011 0.875025
475 1 0.250007 0.375011 0.875025
476 1 0.375011 0.375011 0.875025
477 1 0.500014 0.375011 0.875025
478 1 0.625018 0.375011 0.875025
479 1 0.750022 0.375011 0.875025
480 1 0.875025 0.375011 0.875025
481 1 1 0.500014 0.875025
482 1 0.125004 0.500014 0.875025
483 1 0.250007 0.500014 0.875025
484 1 0.375011 0.500014 0.875025
485 1 0.500014 0.500014 0.875025
486 1 0.625018 0.500014 0.875025
487 1 0.750022 0.500014 0.875025
488 1 0.875025 0.500014 0.875025
489 1 1 0.625018 0.875025
490 1 0.125004 0.625018 0.875025
491 1 0.250007 0.625018 0.875025
492 1 0.375011 0.625018 0.875025
493 1 0.500014 0.625018 0.875025
494 1 0.625018 0.625018 0.875025
495 1 0.750022 0.625018 0.875025
496 1 0.875025 0.625018 0.875025
497 1 1 0.750022 0.875025
498 1 0.125004 0.750022 0.875025
499 1 0.250007 0.750022 0.875025
500 1 0.375011 0.750022 0.875025
501 1 0.500014 0.750022 0.875025
502 1 0.625018 0.750022 0.875025
503 1 0.750022 0.750022 0.875025
504 1 0.875025 0.750022 0.875025
505 1 1 0.875025 0.875025
506 1 0.125004 0.875025 0.875025
507 1 0.250007 0.875025 0.875025
508 1 0.375011 0.875025 0.875025
509 1 0.500014 0.875025 0.875025
510 1 0.625018 0.875025 0.875025
511 1 0.750022 0.875025 0.875025
512 1 0.875025 0.875025 0.875025
ITEM: TIMESTEP
50000
ITEM: NUMBER OF ATOMS
512
ITEM: BOX BOUNDS xy xz yz pp pp pp
-8.5042619106641126e-02 4.6483331077172977e+01 1.1642093419033090e+01
-7.3649068555891262e-02 2.6812614027544139e+01 1.1642093419033090e+01
-6.9437006063525430e-02 1.8942021496063155e+01 6.7215657689882979e+00
ITEM: ATOMS id type xs ys zs
1 1 -0.0112325 0.0090261 -0.00110911
2 1 0.12302 0.000640589 0.00314943
3 1 0.246032 0.0049636 -0.00449963
4 1 0.372568 -0.0044215 0.00829134
5 1 0.498013 0.00360588 -0.00276137
6 1 0.619462 -0.00632655 0.00581992
7 1 0.748928 -0.00236454 -0.00177323
8 1 0.867128 0.00729396 -0.0078532
9 1 1.00102 0.127147 0.000825579
10 1 0.123008 0.130223 -0.00241061
11 1 0.246231 0.121749 0.00530004
12 1 0.368142 0.123376 0.00326686
13 1 0.49645 0.133038 -0.00341869
14 1 0.619322 0.126478 -0.00473696
15 1 0.748023 0.123685 0.00311918
16 1 0.865753 0.129493 0.000810199
17 1 1.00224 0.255517 -0.00399407
18 1 0.123843 0.253092 0.00166626
19 1 0.246643 0.24644 0.00782439
20 1 0.375713 0.249848 0.00501851
21 1 0.49949 0.250609 0.00276039
22 1 0.627699 0.250951 0.00439845
23 1 0.748484 0.250242 -0.00386933
24 1 0.874857 0.249675 0.000473887
25 1 0.996488 0.384213 -0.00321875
26 1 0.128173 0.379191 -0.00255087
27 1 0.25578 0.374199 0.00326604
28 1 0.38607 0.372325 -0.00675622
29 1 0.500347 0.378352 0.0022901
30 1 0.62174 0.379379 -0.00235769
31 1 0.757117 0.374149 0.00103484
32 1 0.877717 0.371875 0.00196249
33 1 0.00446206 0.505737 0.00120984
34 1 0.130793 0.493202 0.00429741
35 1 0.256384 0.493288 0.0015191
36 1 0.374242 0.499801 0.00789619
37 1 0.496956 0.50084 0.00268069
38 1 0.625606 0.496554 -0.00407397
39 1 0.751771 0.501017 -0.0083189
40 1 0.872916 0.503342 -0.000590127
41 1 1.00021 0.624578 0.00443853
42 1 0.121274 0.618557 0.00709542
43 1 0.253305 0.621453 0.00273155
44 1 0.374674 0.620609 0.00615663
45 1 0.503832 0.627962 0.00151098
46 1 0.624221 0.626374 -0.00302381
47 1 0.75051 0.622513 -0.0077764
48 1 0.872292 0.623515 0.00135237
49 1 -0.0114403 0.7502 0.0079013
50 1 0.126944 0.749251 -0.000232675
51 1 0.244871 0.756305 -0.0017421
52 1 0.371893 0.751492 -0.00114442
53 1 0.491234 0.750756 0.00919801
54 1 0.62371 0.74673 0.00377837
55 1 0.739647 0.750323 0.00148667
56 1 0.865388 0.742899 0.00843518
57 1 -0.00712482 0.875431 0.00363583
58 1 0.115241 0.888529 0.00072329
59 1 0.252081 0.877322 -0.00575307
60 1 0.369334 0.877701 -0.000807065
61 1 0.500696 0.873935 0.00223756
62 1 0.623302 0.874766 0.00549497
63 1 0.749538 0.861966 0.00455963
64 1 0.868863 0.877685 0.00126949
65 1 0.996937 1.00728 0.124481
66 1 0.129328 1.00327 0.121632
67 1 0.246733 1.0041 0.125785
68 1 0.369784 1.00318 0.13117
69 1 0.496864 0.991949 0.134577
70 1 0.626231 1.00562 0.118662
71 1 0.747166 1.00471 0.126721
72 1 0.876726 0.99864 0.123217
73 1 1.00058 0.133381 0.124434
74 1 0.122096 0.128595 0.123768
75 1 0.24252 0.124764 0.128019
76 1 0.376003 0.121684 0.120438
77 1 0.497519 0.126633 0.126764
78 1 0.622497 0.130748 0.120869
79 1 0.74755 0.122038 0.125408
80 1 0.870533 0.129632 0.11928
81 1 0.998288 0.255854 0.121394
82 1 0.126079 0.24515 0.128952
83 1 0.252753 0.248489 0.126913
84 1 0.373715 0.251283 0.123869
85 1 0.500646 0.251003 0.123525
86 1 0.625086 0.245598 0.129266
87 1 0.752189 0.251079 0.125413
88 1 0.873379 0.254709 0.122764
89 1 1.00307 0.375308 0.120813
90 1 0.125792 0.37286 0.123115
91 1 0.255708 0.365344 0.128759
92 1 0.373973 0.376007 0.123125
93 1 0.488111 0.379342 0.131069
94 1 0.624683 0.369014 0.123902
95 1 0.744506 0.37493 0.126198
96 1 0.876991 0.371816 0.124802
97 1 1.00235 0.494735 0.12874
98 1 0.127644 0.496806 0.124409
99 1 0.248888 0.499154 0.130723
100 1 0.37007 0.494383 0.134336
101 1 0.499013 0.499569 0.125152
102 1 0.626055 0.504613 0.115729
103 1 0.748319 0.495594 0.118753
104 1 0.878471 0.500482 0.124796
105 1 1.00074 0.623591 0.128617
106 1 0.124907 0.621454 0.121212
107 1 0.240414 0.628233 0.12659
108 1 0.375011 0.631242 0.119458
109 1 0.493222 0.632561 0.122802
110 1 0.625186 0.624363 0.123493
111 1 0.752596 0.623531 0.117881
112 1 0.877759 0.624111 0.123445
113 1 0.991685 0.753458 0.122596
114 1 0.116494 0.759755 0.117755
115 1 0.248763 0.754771 0.122784
116 1 0.374174 0.754974 0.123933
117 1 0.49458 0.75787 0.124048
118 1 0.620196 0.742929 0.130036
119 1 0.749061 0.740814 0.128059
120 1 0.867551 0.758052 0.122841
121 1 1.00228 0.878238 0.125711
122 1 0.125958 0.875275 0.120936
123 1 0.244902 0.878752 0.128239
124 1 0.37032 0.880492 0.126497
125 1 0.497385 0.874621 0.132594
126 1 0.626827 0.86616 0.133668
127 1 0.745666 0.874411 0.120198
128 1 0.869548 0.880382 0.116486
129 1 0.999365 0.998722 0.249915
130 1 0.121332 0.998799 0.253593
131 1 0.243196 1.00271 0.248823
132 1 0.371525 1.00039 0.254331
133 1 0.494373 1.00136 0.252274
134 1 0.626632 1.00174 0.241827
135 1 0.757604 0.996392 0.24543
136 1 0.87925 0.997965 0.243732
137 1 1.00217 0.124513 0.250226
138 1 0.125491 0.132524 0.250175
139 1 0.255175 0.122586 0.239205
140 1 0.374049 0.124483 0.248511
141 1 0.499197 0.12664 0.249159
142 1 0.625304 0.126193 0.249185
143 1 0.750216 0.122989 0.252854
144 1 0.880512 0.118677 0.247482
145 1 0.996827 0.250545 0.248861
146 1 0.124309 0.252676 0.251857
147 1 0.250584 0.243998 0.253134
148 1 0.381167 0.250528 0.25291
149 1 0.500204 0.2586 0.244821
150 1 0.629758 0.2455 0.255527
151 1 0.748173 0.248153 0.255747
152 1 0.874578 0.250149 0.247711
153 1 0.994461 0.369714 0.251784
154 1 0.12872 0.374014 0.250725
155 1 0.248894 0.376574 0.252525
156 1 0.368139 0.37778 0.255837
157 1 0.492524 0.377486 0.255095
158 1 0.622217 0.373426 0.246247
159 1 0.747794 0.379721 0.245837
160 1 0.872351 0.381849 0.241697
161 1 1.00245 0.502415 0.248743
162 1 0.11933 0.496049 0.254722
163 1 0.242075 0.503924 0.255796
164 1 0.369091 0.505635 0.242518
165 1 0.493692 0.498591 0.254973
166 1 0.621792 0.498944 0.247772
167 1 0.749841 0.496808 0.248197
168 1 0.881403 0.497702 0.242278
169 1 1.0013 0.621717 0.252605
170 1 0.11829 0.634654 0.246437
171 1 0.253852 0.628514 0.246397
172 1 0.380739 0.618758 0.247934
173 1 0.50085 0.619878 0.246391
174 1 0.623217 0.620409 0.251626
175 1 0.756295 0.621002 0.245621
176 1 0.879897 0.624007 0.246771
177 1 1.00074 0.751172 0.246863
178 1 0.127886 0.753711 0.244898
179 1 0.255548 0.752854 0.244565
180 1 0.373703 0.749656 0.249799
181 1 0.499948 0.752347 0.257439
182 1 0.621777 0.748883 0.255621
183 1 0.748359 0.749414 0.253502
184 1 0.87469 0.750829 0.253251
185 1 1.00683 0.870323 0.247668
186 1 0.127598 0.87164 0.251613
187 1 0.251095 0.875807 0.250518
188 1 0.377305 0.876379 0.249948
189 1 0.500202 0.871864 0.254453
190 1 0.628503 0.877872 0.252246
191 1 0.751794 0.871331 0.249493
192 1 0.873162 0.880311 0.246315
193 1 1.00238 0.998063 0.375094
194 1 0.129541 0.99955 0.376827
195 1 0.24518 0.996917 0.383695
196 1 0.370778 0.999585 0.380303
197 1 0.497298 0.998205 0.380257
198 1 0.625875 0.998461 0.373658
199 1 0.751588 1.00018 0.367483
200 1 0.87503 0.997008 0.373613
201 1 0.99968 0.126105 0.371632
202 1 0.119329 0.12193 0.378126
203 1 0.246142 0.116384 0.389681
204 1 0.373912 0.124528 0.371304
205 1 0.495659 0.133493 0.374009
206 1 0.625422 0.123987 0.376726
207 1 0.752363 0.126314 0.376853
208 1 0.880904 0.122069 0.369479
209 1 0.997635 0.243967 0.38219
210 1 0.129389 0.244917 0.373816
211 1 0.242596 0.246449 0.374865
212 1 0.368679 0.258609 0.378499
213 1 0.492691 0.257644 0.376659
214 1 0.627136 0.245473 0.374948
215 1 0.754114 0.260888 0.36466
216 1 0.876462 0.252044 0.373036
217 1 0.998569 0.37496 0.374483
218 1 0.129565 0.370727 0.377605
219 1 0.244041 0.376275 0.38018
220 1 0.368056 0.379454 0.377526
221 1 0.490064 0.375275 0.382324
222 1 0.635043 0.375572 0.369393
223 1 0.750657 0.383889 0.37257
224 1 0.878214 0.375333 0.372091
225 1 0.99567 0.499104 0.38323
226 1 0.121964 0.506914 0.372196
227 1 0.250379 0.501791 0.37567
228 1 0.374106 0.501595 0.377689
229 1 0.502585 0.501102 0.373038
230 1 0.62012 0.501847 0.377013
231 1 0.747135 0.505187 0.369202
232 1 0.871404 0.500318 0.371136
233 1 0.998356 0.629588 0.373722
234 1 0.130252 0.627221 0.368145
235 1 0.259867 0.624246 0.369118
236 1 0.378352 0.621636 0.373979
237 1 0.497711 0.626389 0.372484
238 1 0.627183 0.630515 0.37051
239 1 0.747401 0.631127 0.373177
240 1 0.873508 0.623299 0.381403
241 1 1.00436 0.751508 0.369223
242 1 0.137107 0.747892 0.366568
243 1 0.247355 0.754409 0.373375
244 1 0.376223 0.756404 0.370605
245 1 0.498592 0.745554 0.381821
246 1 0.625597 0.741866 0.3844
247 1 0.753341 0.742062 0.377943
248 1 0.877181 0.757382 0.36655
249 1 1.00466 0.872584 0.373864
250 1 0.130044 0.87843 0.373515
251 1 0.25428 0.87479 0.376335
252 1 0.36601 0.872586 0.386109
253 1 0.504433 0.868081 0.372405
254 1 0.621599 0.876265 0.374879
255 1 0.755123 0.872981 0.370778
256 1 0.874122 0.88154 0.374214
257 1 0.997711 0.99799 0.499594
258 1 0.119362 1.00586 0.505978
259 1 0.253282 0.992847 0.504502
260 1 0.369578 1.00157 0.499069
261 1 0.498809 1.00101 0.503096
262 1 0.622703 1.00163 0.499595
263 1 0.749222 0.993496 0.498695
264 1 0.863352 1.00656 0.496264
265 1 0.994724 0.119022 0.510463
266 1 0.115261 0.128594 0.506495
267 1 0.247121 0.128422 0.500863
268 1 0.376201 0.124274 0.498765
269 1 0.504997 0.131129 0.497281
270 1 0.623963 0.123467 0.503716
271 1 0.748761 0.132262 0.499147
272 1 0.878771 0.127118 0.49404
273 1 1.00215 0.245908 0.496733
274 1 0.123011 0.258992 0.494039
275 1 0.252144 0.245818 0.50533
276 1 0.378042 0.247581 0.501634
277 1 0.504773 0.251315 0.500535
278 1 0.632289 0.249319 0.492672
279 1 0.752774 0.253711 0.496295
280 1 0.876612 0.24872 0.496788
281 1 0.99742 0.375207 0.498342
282 1 0.121989 0.379364 0.50316
283 1 0.257405 0.368085 0.496538
284 1 0.376841 0.375801 0.503858
285 1 0.49373 0.378595 0.507167
286 1 0.62989 0.374407 0.494474
287 1 0.753455 0.379497 0.486208
288 1 0.877257 0.372723 0.500342
289 1 1.00083 0.506062 0.493409
290 1 0.12135 0.497279 0.50635
291 1 0.250705 0.494473 0.501655
292 1 0.370171 0.508826 0.50073
293 1 0.486901 0.508876 0.498963
294 1 0.634704 0.496342 0.494255
295 1 0.756484 0.498797 0.495255
296 1 0.88072 0.492109 0.507263
297 1 1.0074 0.627761 0.492667
298 1 0.132997 0.613483 0.494991
299 1 0.251297 0.624577 0.504692
300 1 0.381786 0.629002 0.495443
301 1 0.507431 0.617527 0.499972
302 1 0.626647 0.619064 0.501812
303 1 0.748787 0.624494 0.502289
304 1 0.874431 0.62877 0.499158
305 1 0.996167 0.746574 0.50337
306 1 0.125867 0.747909 0.494682
307 1 0.252107 0.750937 0.496559
308 1 0.372778 0.752238 0.499492
309 1 0.501765 0.736657 0.504346
310 1 0.626231 0.743874 0.502901
311 1 0.759427 0.750565 0.493865
312 1 0.882071 0.754089 0.484061
313 1 0.997464 0.879842 0.496053
314 1 0.123383 0.878897 0.494697
315 1 0.249278 0.875652 0.505056
316 1 0.377599 0.866972 0.503952
317 1 0.494625 0.871092 0.508436
318 1 0.63006 0.869222 0.496681
319 1 0.748095 0.874975 0.497722
320 1 0.869424 0.875946 0.504208
321 1 0.999189 0.995471 0.629346
322 1 0.121488 0.997425 0.631825
323 1 0.24979 0.999708 0.624481
324 1 0.373501 0.994648 0.627653
325 1 0.504598 0.999899 0.618254
326 1 0.624487 0.995495 0.627496
327 1 0.747148 0.994967 0.625413
328 1 0.874915 0.999365 0.621233
329 1 0.9985 0.12192 0.634479
330 1 0.134196 0.124527 0.618572
331 1 0.251835 0.126695 0.627265
332 1 0.380311 0.121244 0.625806
333 1 0.504667 0.123821 0.624732
334 1 0.631414 0.121065 0.62001
335 1 0.755305 0.121 0.622413
336 1 0.873116 0.124606 0.62316
337 1 1.00638 0.250098 0.615212
338 1 0.129885 0.25141 0.627186
339 1 0.2535 0.251258 0.620787
340 1 0.377622 0.248914 0.621924
341 1 0.508357 0.24608 0.624772
342 1 0.633076 0.244726 0.626842
343 1 0.758789 0.248224 0.616078
344 1 0.880756 0.240654 0.62426
345 1 1.00255 0.374472 0.625175
346 1 0.124051 0.379122 0.628318
347 1 0.254974 0.369983 0.627438
348 1 0.380729 0.373759 0.626475
349 1 0.509897 0.369779 0.620631
350 1 0.621499 0.372245 0.619809
351 1 0.751221 0.374283 0.619679
352 1 0.880359 0.360702 0.626561
353 1 1.00177 0.499915 0.62124
354 1 0.130423 0.495488 0.63026
355 1 0.250986 0.495451 0.628227
356 1 0.373558 0.509627 0.615683
357 1 0.50545 0.493307 0.625768
358 1 0.632242 0.494387 0.624241
359 1 0.749783 0.502074 0.622104
360 1 0.877389 0.491302 0.62626
361 1 1.004 0.619105 0.62064
362 1 0.124351 0.629285 0.616484
363 1 0.247979 0.625422 0.625535
364 1 0.374934 0.624777 0.621875
365 1 0.499496 0.620316 0.629272
366 1 0.618772 0.625387 0.628579
367 1 0.751728 0.626246 0.621908
368 1 0.882744 0.628527 0.617392
369 1 1.0039 0.75027 0.622517
370 1 0.12437 0.753699 0.625328
371 1 0.25058 0.752982 0.622066
372 1 0.375583 0.740564 0.635605
373 1 0.493924 0.751115 0.626182
374 1 0.629619 0.740353 0.626355
375 1 0.754331 0.748928 0.621968
376 1 0.876466 0.746708 0.630484
377 1 0.999895 0.875404 0.617964
378 1 0.128605 0.872482 0.62894
379 1 0.250996 0.876162 0.62652
380 1 0.366158 0.871828 0.630811
381 1 0.504399 0.871445 0.623814
382 1 0.626895 0.871431 0.619439
383 1 0.746137 0.870596 0.62704
384 1 0.872878 0.875057 0.628745
385 1 0.999025 1.00453 0.753298
386 1 0.13106 0.999861 0.75053
387 1 0.253656 1.00175 0.749308
388 1 0.376274 0.999225 0.749808
389 1 0.49504 0.997673 0.753643
390 1 0.619214 0.995646 0.751953
391 1 0.743118 0.99428 0.75314
392 1 0.863506 0.998606 0.758214
393 1 1.00046 0.125563 0.752657
394 1 0.128181 0.123361 0.758394
395 1 0.253447 0.12686 0.749932