ITEM: TIMESTEP
0
ITEM: NUMBER OF ATOMS
512
ITEM: BOX BOUNDS xy xz yz pp pp pp
0.0000000000000000e+00 4.6228203219999997e+01 1.1557050800000001e+01
0.0000000000000000e+00 2.6689865579999999e+01 1.1557050800000001e+01
0.0000000000000000e+00 1.8872584490000001e+01 6.6724663900000003e+00
ITEM: ATOMS id type xs ys zs
1 1 0 0 0
2 1 0.125004 0 0
3 1 0.250007 0 0
4 1 0.375011 0 0
5 1 0.500014 0 0
6 1 0.625018 0 0
7 1 0.750022 0 0
8 1 0.875025 0 0
9 1 1 0.125004 0
10 1 0.125004 0.125004 0
11 1 0.250007 0.125004 0
12 1 0.375011 0.125004 0
13 1 0.500014 0.125004 0
14 1 0.625018 0.125004 0
15 1 0.750022 0.125004 0
16 1 0.875025 0.125004 0
17 1 1 0.250007 0
18 1 0.125004 0.250007 0
19 1 0.250007 0.250007 0
20 1 0.375011 0.250007 0
21 1 0.500014 0.250007 0
22 1 0.625018 0.250007 0
23 1 0.750022 0.250007 0
24 1 0.875025 0.250007 0
25 1 1 0.375011 0
26 1 0.125004 0.375011 0
27 1 0.250007 0.375011 0
28 1 0.375011 0.375011 0
29 1 0.500014 0.375011 0
30 1 0.625018 0.375011 0
31 1 0.750022 0.375011 0
32 1 0.875025 0.375011 0
33 1 5.51848e-10 0.500014 0
34 1 0.125004 0.500014 0
35 1 0.250007 0.500014 0
36 1 0.375011 0.500014 0
37 1 0.500014 0.500014 0
38 1 0.625018 0.500014 0
39 1 0.750022 0.500014 0
40 1 0.875025 0.500014 0
41 1 1 0.625018 0
42 1 0.125004 0.625018 0
43 1 0.250007 0.625018 0
44 1 0.375011 0.625018 0
45 1 0.500014 0.625018 0
46 1 0.625018 0.625018 0
47 1 0.750022 0.625018 0
48 1 0.875025 0.625018 0
49 1 1.78817e-10 0.750022 0
50 1 0.125004 0.750022 0
51 1 0.250007 0.750022 0
52 1 0.375011 0.750022 0
53 1 0.500014 0.750022 0
54 1 0.625018 0.750022 0
55 1 0.750022 0.750022 0
56 1 0.875025 0.750022 0
57 1 3.90225e-10 0.875025 0
58 1 0.125004 0.875025 0
59 1 0.250007 0.875025 0
60 1 0.375011 0.875025 0
61 1 0.500014 0.875025 0
62 1 0.625018 0.875025 0
63 1 0.750022 0.875025 0
64 1 0.875025 0.875025 0
65 1 1 1 0.125004
66 1 0.125004 1 0.125004
67 1 0.250007 1 0.125004
68 1 0.375011 1 0.125004
69 1 0.500014 1 0.125004
70 1 0.625018 1 0.125004
71 1 0.750022 1 0.125004
72 1 0.875025 1 0.125004
73 1 1 0.125004 0.125004
74 1 0.125004 0.125004 0.125004
75 1 0.250007 0.125004 0.125004
76 1 0.375011 0.125004 0.125004
77 1 0.500014 0.125004 0.125004
78 1 0.625018 0.125004 0.125004
79 1 0.750022 0.125004 0.125004
80 1 0.875025 0.125004 0.125004
81 1 1 0.250007 0.125004
82 1 0.125004 0.250007 0.125004
83 1 0.250007 0.250007 0.125004
84 1 0.375011 0.250007 0.125004
85 1 0.500014 0.250007 0.125004
86 1 0.625018 0.250007 0.125004
87 1 0.750022 0.250007 0.125004
88 1 0.875025 0.250007 0.125004
89 1 1 0.375011 0.125004
90 1 0.125004 0.375011 0.125004
91 1 0.250007 0.375011 0.125004
92 1 0.375011 0.375011 0.125004
93 1 0.500014 0.375011 0.125004
94 1 0.625018 0.375011 0.125004
95 1 0.750022 0.375011 0.125004
96 1 0.875025 0.375011 0.125004
97 1 1 0.500014 0.125004
98 1 0.125004 0.500014 0.125004
99 1 0.250007 0.500014 0.125004
100 1 0.375011 0.500014 0.125004
101 1 0.500014 0.500014 0.125004
102 1 0.625018 0.500014 0.125004
103 1 0.750022 0.500014 0.125004
104 1 0.875025 0.500014 0.125004
105 1 1 0.625018 0.125004
106 1 0.125004 0.625018 0.125004
107 1 0.250007 0.625018 0.125004
108 1 0.375011 0.625018 0.125004
109 1 0.500014 0.625018 0.125004
110 1 0.625018 0.625018 0.125004
111 1 0.750022 0.625018 0.125004
112 1 0.875025 0.625018 0.125004
113 1 1 0.750022 0.125004
114 1 0.125004 0.750022 0.125004
115 1 0.250007 0.750022 0.125004
116 1 0.375011 0.750022 0.125004
117 1 0.500014 0.750022 0.125004
118 1 0.625018 0.750022 0.125004
119 1 0.750022 0.750022 0.125004
120 1 0.875025 0.750022 0.125004
121 1 1 0.875025 0.125004
122 1 0.125004 0.875025 0.125004
123 1 0.250007 0.875025 0.125004
124 1 0.375011 0.875025 0.125004
125 1 0.500014 0.875025 0.125004
126 1 0.625018 0.875025 0.125004
127 1 0.750022 0.875025 0.125004
128 1 0.875025 0.875025 0.125004
129 1 1 1 0.250007
130 1 0.125004 1 0.250007
131 1 0.250007 1 0.250007
132 1 0.375011 1 0.250007
133 1 0.500014 1 0.250007
134 1 0.625018 1 0.250007
135 1 0.750022 1 0.250007
136 1 0.875025 1 0.250007
137 1 1 0.125004 0.250007
138 1 0.125004 0.125004 0.250007
139 1 0.250007 0.125004 0.250007
140 1 0.375011 0.125004 0.250007
141 1 0.500014 0.125004 0.250007
142 1 0.625018 0.125004 0.250007
143 1 0.750022 0.125004 0.250007
144 1 0.875025 0.125004 0.250007
145 1 1 0.250007 0.250007
146 1 0.125004 0.250007 0.250007
147 1 0.250007 0.250007 0.250007
148 1 0.375011 0.250007 0.250007
149 1 0.500014 0.250007 0.250007
150 1 0.625018 0.250007 0.250007
151 1 0.750022 0.250007 0.250007
152 1 0.875025 0.250007 0.250007
153 1 1 0.375011 0.250007
154 1 0.125004 0.375011 0.250007
155 1 0.250007 0.375011 0.250007
156 1 0.375011 0.375011 0.250007
157 1 0.500014 0.375011 0.250007
158 1 0.625018 0.375011 0.250007
159 1 0.750022 0.375011 0.250007
160 1 0.875025 0.375011 0.250007
161 1 1 0.500014 0.250007
162 1 0.125004 0.500014 0.250007
163 1 0.250007 0.500014 0.250007
164 1 0.375011 0.500014 0.250007
165 1 0.500014 0.500014 0.250007
166 1 0.625018 0.500014 0.250007
167 1 0.750022 0.500014 0.250007
168 1 0.875025 0.500014 0.250007
169 1 1 0.625018 0.250007
170 1 0.125004 0.625018 0.250007
171 1 0.250007 0.625018 0.250007
172 1 0.375011 0.625018 0.250007
173 1 0.500014 0.625018 0.250007
174 1 0.625018 0.625018 0.250007
175 1 0.750022 0.625018 0.250007
176 1 0.875025 0.625018 0.250007
177 1 1 0.750022 0.250007
178 1 0.125004 0.750022 0.250007
179 1 0.250007 0.750022 0.250007
180 1 0.375011 0.750022 0.250007
181 1 0.500014 0.750022 0.250007
182 1 0.625018 0.750022 0.250007
183 1 0.750022 0.750022 0.250007
184 1 0.875025 0.750022 0.250007
185 1 1 0.875025 0.250007
186 1 0.125004 0.875025 0.250007
187 1 0.250007 0.875025 0.250007
188 1 0.375011 0.875025 0.250007
189 1 0.500014 0.875025 0.250007
190 1 0.625018 0.875025 0.250007
191 1 0.750022 0.875025 0.250007
192 1 0.875025 0.875025 0.250007
193 1 1 1 0.375011
194 1 0.125004 1 0.375011
195 1 0.250007 1 0.375011
196 1 0.375011 1 0.375011
197 1 0.500014 1 0.375011
198 1 0.625018 1 0.375011
199 1 0.750022 1 0.375011
200 1 0.875025 1 0.375011
201 1 1 0.125004 0.375011
202 1 0.125004 0.125004 0.375011
203 1 0.250007 0.125004 0.375011
204 1 0.375011 0.125004 0.375011
205 1 0.500014 0.125004 0.375011
206 1 0.625018 0.125004 0.375011
207 1 0.750022 0.125004 0.375011
208 1 0.875025 0.125004 0.375011
209 1 1 0.250007 0.375011
210 1 0.125004 0.250007 0.375011
211 1 0.250007 0.250007 0.375011
212 1 0.375011 0.250007 0.375011
213 1 0.500014 0.250007 0.375011
214 1 0.625018 0.250007 0.375011
215 1 0.750022 0.250007 0.375011
216 1 0.875025 0.250007 0.375011
217 1 1 0.375011 0.375011
218 1 0.125004 0.375011 0.375011
219 1 0.250007 0.375011 0.375011
220 1 0.375011 0.375011 0.375011
221 1 0.500014 0.375011 0.375011
222 1 0.625018 0.375011 0.375011
223 1 0.750022 0.375011 0.375011
224 1 0.875025 0.375011 0.375011
225 1 1 0.500014 0.375011
226 1 0.125004 0.500014 0.375011
227 1 0.250007 0.500014 0.375011
228 1 0.375011 0.500014 0.375011
229 1 0.500014 0.500014 0.375011
230 1 0.625018 0.500014 0.375011
231 1 0.750022 0.500014 0.375011
232 1 0.875025 0.500014 0.375011
233 1 1 0.625018 0.375011
234 1 0.125004 0.625018 0.375011
235 1 0.250007 0.625018 0.375011
236 1 0.375011 0.625018 0.375011
237 1 0.500014 0.625018 0.375011
238 1 0.625018 0.625018 0.375011
239 1 0.750022 0.625018 0.375011
240 1 0.875025 0.625018 0.375011
241 1 1 0.750022 0.375011
242 1 0.125004 0.750022 0.375011
243 1 0.250007 0.750022 0.375011
244 1 0.375011 0.750022 0.375011
245 1 0.500014 0.750022 0.375011
246 1 0.625018 0.750022 0.375011
247 1 0.750022 0.750022 0.375011
248 1 0.875025 0.750022 0.375011
249 1 1 0.875025 0.375011
250 1 0.125004 0.875025 0.375011
251 1 0.250007 0.875025 0.375011
252 1 0.375011 0.875025 0.375011
253 1 0.500014 0.875025 0.375011
254 1 0.625018 0.875025 0.375011
255 1 0.750022 0.875025 0.375011
256 1 0.875025 0.875025 0.375011
257 1 1 1 0.500014
258 1 0.125004 1 0.500014
259 1 0.250007 1 0.500014
260 1 0.375011 1 0.500014
261 1 0.500014 1 0.500014
262 1 0.625018 1 0.500014
263 1 0.750022 1 0.500014
264 1 0.875025 1 0.500014
265 1 1 0.125004 0.500014
266 1 0.125004 0.125004 0.500014
267 1 0.250007 0.125004 0.500014
268 1 0.375011 0.125004 0.500014
269 1 0.500014 0.125004 0.500014
270 1 0.625018 0.125004 0.500014
271 1 0.750022 0.125004 0.500014
272 1 0.875025 0.125004 0.500014
273 1 1 0.250007 0.500014
274 1 0.125004 0.250007 0.500014
275 1 0.250007 0.250007 0.500014
276 1 0.375011 0.250007 0.500014
277 1 0.500014 0.250007 0.500014
278 1 0.625018 0.250007 0.500014
279 1 0.750022 0.250007 0.500014
280 1 0.875025 0.250007 0.500014
281 1 1 0.375011 0.500014
282 1 0.125004 0.375011 0.500014
283 1 0.250007 0.375011 0.500014
284 1 0.375011 0.375011 0.500014
285 1 0.500014 0.375011 0.500014
286 1 0.625018 0.375011 0.500014
287 1 0.750022 0.375011 0.500014
288 1 0.875025 0.375011 0.500014
289 1 1 0.500014 0.500014
290 1 0.125004 0.500014 0.500014
291 1 0.250007 0.500014 0.500014
292 1 0.375011 0.500014 0.500014
293 1 0.500014 0.500014 0.500014
294 1 0.625018 0.500014 0.500014
295 1 0.750022 0.500014 0.500014
296 1 0.875025 0.500014 0.500014
297 1 1 0.625018 0.500014
298 1 0.125004 0.625018 0.500014
299 1 0.250007 0.625018 0.500014
300 1 0.375011 0.625018 0.500014
301 1 0.500014 0.625018 0.500014
302 1 0.625018 0.625018 0.500014
303 1 0.750022 0.625018 0.500014
304 1 0.875025 0.625018 0.500014
305 1 1 0.750022 0.500014
306 1 0.125004 0.750022 0.500014
307 1 0.250007 0.750022 0.500014
308 1 0.375011 0.750022 0.500014
309 1 0.500014 0.750022 0.500014
310 1 0.625018 0.750022 0.500014
311 1 0.750022 0.750022 0.500014
312 1 0.875025 0.750022 0.500014
313 1 1 0.875025 0.500014
314 1 0.125004 0.875025 0.500014
315 1 0.250007 0.875025 0.500014
316 1 0.375011 0.875025 0.500014
317 1 0.500014 0.875025 0.500014
318 1 0.625018 0.875025 0.500014
319 1 0.750022 0.875025 0.500014
320 1 0.875025 0.875025 0.500014
321 1 1 1 0.625018
322 1 0.125004 1 0.625018
323 1 0.250007 1 0.625018
324 1 0.375011 1 0.625018
325 1 0.500014 1 0.625018
326 1 0.625018 1 0.625018
327 1 0.750022 1 0.625018
328 1 0.875025 1 0.625018
329 1 1 0.125004 0.625018
330 1 0.125004 0.125004 0.625018
331 1 0.250007 0.125004 0.625018
332 1 0.375011 0.125004 0.625018
333 1 0.500014 0.125004 0.625018
334 1 0.625018 0.125004 0.625018
335 1 0.750022 0.125004 0.625018
336 1 0.875025 0.125004 0.625018
337 1 1 0.250007 0.625018
338 1 0.125004 0.250007 0.625018
339 1 0.250007 0.250007 0.625018
340 1 0.375011 0.250007 0.625018
341 1 0.500014 0.250007 0.625018
342 1 0.625018 0.250007 0.625018
343 1 0.750022 0.250007 0.625018
344 1 0.875025 0.250007 0.625018
345 1 1 0.375011 0.625018
346 1 0.125004 0.375011 0.625018
347 1 0.250007 0.375011 0.625018
348 1 0.375011 0.375011 0.625018
349 1 0.500014 0.375011 0.625018
350 1 0.625018 0.375011 0.625018
351 1 0.750022 0.375011 0.625018
352 1 0.875025 0.375011 0.625018
353 1 1 0.500014 0.625018
354 1 0.125004 0.500014 0.625018
355 1 0.250007 0.500014 0.625018
356 1 0.375011 0.500014 0.625018
357 1 0.500014 0.500014 0.625018
358 1 0.625018 0.500014 0.625018
359 1 0.750022 0.500014 0.625018
360 1 0.875025 0.500014 0.625018
361 1 1 0.625018 0.625018
362 1 0.125004 0.625018 0.625018
363 1 0.250007 0.625018 0.625018
364 1 0.375011 0.625018 0.625018
365 1 0.500014 0.625018 0.625018
366 1 0.625018 0.625018 0.625018
367 1 0.750022 0.625018 0.625018
368 1 0.875025 0.625018 0.625018
369 1 1 0.750022 0.625018
370 1 0.125004 0.750022 0.625018
371 1 0.250007 0.750022 0.625018
372 1 0.375011 0.750022 0.625018
373 1 0.500014 0.750022 0.625018
374 1 0.625018 0.750022 0.625018
375 1 0.750022 0.750022 0.625018
376 1 0.875025 0.750022 0.625018
377 1 1 0.875025 0.625018
378 1 0.125004 0.875025 0.625018
379 1 0.250007 0.875025 0.625018
380 1 0.375011 0.875025 0.625018
381 1 0.500014 0.875025 0.625018
382 1 0.625018 0.875025 0.625018
383 1 0.750022 0.875025 0.625018
384 1 0.875025 0.875025 0.625018
385 1 1 1 0.750022
386 1 0.125004 1 0.750022
387 1 0.250007 1 0.750022
388 1 0.375011 1 0.750022
389 1 0.500014 1 0.750022
390 1 0.625018 1 0.750022
391 1 0.750022 1 0.750022
392 1 0.875025 1 0.750022
393 1 1 0.125004 0.750022
394 1 0.125004 0.125004 0.750022
395 1 0.250007 0.125004 0.750022
396 1 0.375011 0.125004 0.750022
397 1 0.500014 0.125004 0.750022
398 1 0.625018 0.125004 0.750022
399 1 0.750022 0.125004 0.750022
400 1 0.875025 0.125004 0.750022
401 1 1 0.250007 0.750022
402 1 0.125004 0.250007 0.750022
403 1 0.250007 0.250007 0.750022
404 1 0.375011 0.250007 0.750022
405 1 0.500014 0.250007 0.750022
406 1 0.625018 0.250007 0.750022
407 1 0.750022 0.250007 0.750022
408 1 0.875025 0.250007 0.750022
409 1 1 0.375011 0.750022
410 1 0.125004 0.375011 0.750022
411 1 0.250007 0.375011 0.750022
412 1 0.375011 0.375011 0.750022
413 1 0.500014 0.375011 0.750022
414 1 0.625018 0.375011 0.750022
415 1 0.750022 0.375011 0.750022
416 1 0.875025 0.375011 0.750022
417 1 1 0.500014 0.750022
418 1 0.125004 0.500014 0.750022
419 1 0.250007 0.500014 0.750022
420 1 0.375011 0.500014 0.750022
421 1 0.500014 0.500014 0.750022
422 1 0.625018 0.500014 0.750022
423 1 0.750022 0.500014 0.750022
424 1 0.875025 0.500014 0.750022
425 1 1 0.625018 0.750022
426 1 0.125004 0.625018 0.750022
427 1 0.250007 0.625018 0.750022
428 1 0.375011 0.625018 0.750022
429 1 0.500014 0.625018 0.750022
430 1 0.625018 0.625018 0.750022
431 1 0.750022 0.625018 0.750022
432 1 0.875025 0.625018 0.750022
433 1 1 0.750022 0.750022
434 1 0.125004 0.750022 0.750022
435 1 0.250007 0.750022 0.750022
436 1 0.375011 0.750022 0.750022
437 1 0.500014 0.750022 0.750022
438 1 0.625018 0.750022 0.750022
439 1 0.750022 0.750022 0.750022
440 1 0.875025 0.750022 0.750022
441 1 1 0.875025 0.750022
442 1 0.125004 0.875025 0.750022
443 1 0.250007 0.875025 0.750022
444 1 0.375011 0.875025 0.750022
445 1 0.500014 0.875025 0.750022
446 1 0.625018 0.875025 0.750022
447 1 0.750022 0.875025 0.750022
448 1 0.875025 0.875025 0.750022
449 1 1 1 0.875025
450 1 0.125004 1 0.875025
451 1 0.250007 1 0.875025
452 1 0.375011 1 0.875025
453 1 0.500014 1 0.875025
454 1 0.625018 1 0.875025
455 1 0.750022 1 0.875025
456 1 0.875025 1 0.875025
457 1 1 0.125004 0.875025
458 1 0.125004 0.125004 0.875025
459 1 0.250007 0.125004 0.875025
460 1 0.375011 0.125004 0.875025
461 1 0.500014 0.125004 0.875025
462 1 0.625018 0.125004 0.875025
463 1 0.750022 0.125004 0.875025
464 1 0.875025 0.125004 0.875025
465 1 1 0.250007 0.875025
466 1 0.125004 0.250007 0.875025
467 1 0.250007 0.250007 0.875025
468 1 0.375011 0.250007 0.875025
469 1 0.500014 0.250007 0.875025
470 1 0.625018 0.250007 0.875025
471 1 0.750022 0.250007 0.875025
472 1 0.875025 0.250007 0.875025
473 1 1 0.375011 0.875025
474 1 0.125004 0.375011 0.875025
475 1 0.250007 0.375011 0.875025
476 1 0.375011 0.375011 0.875025
477 1 0.500014 0.375011 0.875025
478 1 0.625018 0.375011 0.875025
479 1 0.750022 0.375011 0.875025
480 1 0.875025 0.375011 0.875025
481 1 1 0.500014 0.875025
482 1 0.125004 0.500014 0.875025
483 1 0.250007 0.500014 0.875025
484 1 0.375011 0.500014 0.875025
485 1 0.500014 0.500014 0.875025
486 1 0.625018 0.500014 0.875025
487 1 0.750022 0.500014 0.875025
488 1 0.875025 0.500014 0.875025
489 1 1 0.625018 0.875025
490 1 0.125004 0.625018 0.875025
491 1 0.250007 0.625018 0.875025
492 1 0.375011 0.625018 0.875025
493 1 0.500014 0.625018 0.875025
494 1 0.625018 0.625018 0.875025
495 1 0.750022 0.625018 0.875025
496 1 0.875025 0.625018 0.875025
497 1 1 0.750022 0.875025
498 1 0.125004 0.750022 0.875025
499 1 0.250007 0.750022 0.875025
500 1 0.375011 0.750022 0.875025
501 1 0.500014 0.750022 0.875025
502 1 0.625018 0.750022 0.875025
503 1 0.750022 0.750022 0.875025
504 1 0.875025 0.750022 0.875025
505 1 1 0.875025 0.875025
506 1 0.125004 0.875025 0.875025
507 1 0.250007 0.875025 0.875025
508 1 0.375011 0.875025 0.875025
509 1 0.500014 0.875025 0.875025
510 1 0.625018 0.875025 0.875025
511 1 0.750022 0.875025 0.875025
512 1 0.875025 0.875025 0.875025
ITEM: TIMESTEP
50000
ITEM: NUMBER OF ATOMS
512
ITEM: BOX BOUNDS xy xz yz pp pp pp
-7.2437236344871536e-02 4.6445514928909297e+01 1.1629488036281970e+01
-6.2732486858969594e-02 2.6794419724723529e+01 1.1629488036281970e+01
-5.9144754384764298e-02 1.8931729244384780e+01 6.7142880478641489e+00
ITEM: ATOMS id type xs ys zs
1 1 0.00014886 -0.00570523 0.00893953
2 1 0.125478 0.00184986 -0.00613477
3 1 0.256578 0.00149574 -0.00496129
4 1 0.379291 -0.00214901 0.00306606
5 1 0.49542 0.00547106 0.00255291
6 1 0.633981 -0.000936214 0.00117121
7 1 0.751046 0.00546265 -0.00580919
8 1 0.875534 -0.0037603 0.00723841
9 1 1.0071 0.120766 0.00126902
10 1 0.128631 0.123747 -0.00260227
11 1 0.257847 0.117074 0.0011352
12 1 0.372996 0.121702 0.00328597
13 1 0.501604 0.125132 0.00541822
14 1 0.623532 0.131996 0.00509745
15 1 0.752068 0.119795 0.0134811
16 1 0.88213 0.11786 -0.00169481
17 1 0.997771 0.253023 -0.00298049
18 1 0.126996 0.246148 0.00666152
19 1 0.252488 0.247296 0.00099441
20 1 0.377523 0.241239 -0.00228247
21 1 0.504239 0.250086 -0.00642746
22 1 0.631543 0.253132 -0.00292704
23 1 0.758022 0.249728 -0.00358538
24 1 0.879191 0.253075 -0.00684206
25 1 1.00117 0.375813 -0.00076698
26 1 0.126941 0.374699 0.00297126
27 1 0.259779 0.376635 -0.00081152
28 1 0.38344 0.367243 -0.00346968
29 1 0.49338 0.382832 -0.00644356
30 1 0.627084 0.373072 0.00140634
31 1 0.751158 0.379926 -0.00198558
32 1 0.877319 0.366222 0.0105038
33 1 0.000467708 0.503375 0.00231423
34 1 0.129373 0.494175 0.00555226
35 1 0.249879 0.503663 -0.0042364
36 1 0.368361 0.505448 -0.000896747
37 1 0.502813 0.499178 -0.00281239
38 1 0.62655 0.508133 -0.00261249
39 1 0.747509 0.496375 0.00479112
40 1 0.873312 0.488231 0.00856079
41 1 1.00211 0.630576 -0.00814578
42 1 0.124509 0.626773 0.00131256
43 1 0.249593 0.624314 0.00152901
44 1 0.373486 0.632577 -0.00652478
45 1 0.497735 0.626369 -0.00373946
46 1 0.623912 0.631137 -0.000844427
47 1 0.749092 0.619785 0.00437791
48 1 0.88261 0.618823 -0.0104067
49 1 0.00743171 0.749961 -0.00346803
50 1 0.12036 0.757983 0.00356414
51 1 0.245685 0.755959 0.00088367
52 1 0.369118 0.758264 0.00262511
53 1 0.504646 0.757492 -0.0106388
54 1 0.619488 0.759863 -0.00729074
55 1 0.753264 0.748921 -0.00377595
56 1 0.872966 0.747867 0.00364629
57 1 -0.00204735 0.875111 0.00209894
58 1 0.122733 0.880707 -0.00847859
59 1 0.251882 0.876096 0.00257339
60 1 0.375782 0.878147 0.000947505
61 1 0.499563 0.878553 -0.00457127
62 1 0.623467 0.874135 -0.000327779
63 1 0.755107 0.877629 -0.00266636
64 1 0.879279 0.8771 0.000805577
65 1 0.999689 0.99835 0.126635
66 1 0.118632 1.00458 0.132634
67 1 0.255922 0.992063 0.124309
68 1 0.37852 1.00711 0.12402
69 1 0.499844 1.00398 0.128588
70 1 0.626338 1.0023 0.126645
71 1 0.746678 0.994543 0.128449
72 1 0.877686 0.988948 0.135539
73 1 0.993441 0.135294 0.122765
74 1 0.133187 0.121971 0.124097
75 1 0.254413 0.127113 0.12621
76 1 0.38184 0.122725 0.12865
77 1 0.507868 0.126064 0.122287
78 1 0.62897 0.131399 0.122927
79 1 0.757096 0.113179 0.135213
80 1 0.883854 0.11869 0.124607
81 1 0.997099 0.251201 0.124052
82 1 0.126928 0.249466 0.121748
83 1 0.25327 0.249955 0.119341
84 1 0.379095 0.249647 0.118819
85 1 0.504873 0.250685 0.129412
86 1 0.629118 0.24849 0.124024
87 1 0.749274 0.253028 0.11868
88 1 0.870982 0.245144 0.124676
89 1 1.00188 0.379434 0.122458
90 1 0.12429 0.37892 0.12079
91 1 0.257268 0.373178 0.125954
92 1 0.378951 0.378696 0.1181
93 1 0.498084 0.372015 0.129341
94 1 0.619084 0.373902 0.124896
95 1 0.756308 0.3718 0.126059
96 1 0.877656 0.376948 0.131206
97 1 1.00391 0.508017 0.123715
98 1 0.121777 0.501535 0.130686
99 1 0.246247 0.498391 0.12898
100 1 0.380069 0.499175 0.113305
101 1 0.499243 0.503577 0.118147
102 1 0.621735 0.498383 0.127262
103 1 0.742942 0.495592 0.129404
104 1 0.872808 0.496688 0.135452
105 1 0.998875 0.634647 0.119591
106 1 0.127673 0.629661 0.123153
107 1 0.255924 0.631385 0.11339
108 1 0.379447 0.624057 0.126244
109 1 0.504412 0.624382 0.126051
110 1 0.622841 0.625342 0.124028
111 1 0.748834 0.626999 0.117501
112 1 0.861537 0.628592 0.128859
113 1 1.0051 0.754771 0.123511
114 1 0.120248 0.746288 0.130894
115 1 0.253949 0.747741 0.126106
116 1 0.375249 0.747137 0.125299
117 1 0.501809 0.759064 0.110912
118 1 0.624133 0.746886 0.123771
119 1 0.744723 0.751958 0.128778
120 1 0.871437 0.747206 0.127504
121 1 1.00489 0.873704 0.125863
122 1 0.128389 0.872227 0.127569
123 1 0.250263 0.881107 0.118679
124 1 0.377068 0.875143 0.12494
125 1 0.499332 0.875789 0.122703
126 1 0.619 0.883007 0.128154
127 1 0.750688 0.869513 0.131591
128 1 0.878427 0.865689 0.133337
129 1 1.00955 0.998346 0.249775
130 1 0.129655 0.998882 0.252731
131 1 0.250967 0.999565 0.254932
132 1 0.374341 1.0033 0.246682
133 1 0.507148 1.00026 0.252598
134 1 0.626324 1.00487 0.245148
135 1 0.746468 0.997813 0.257242
136 1 0.872512 1.00022 0.254238
137 1 1.00519 0.124429 0.251384
138 1 0.125733 0.126872 0.253537
139 1 0.246034 0.132478 0.252959
140 1 0.371757 0.13147 0.250644
141 1 0.499364 0.127764 0.248917
142 1 0.62782 0.125907 0.253807
143 1 0.758206 0.126528 0.248995
144 1 0.874889 0.123379 0.246445
145 1 1.00343 0.243582 0.25063
146 1 0.118948 0.250827 0.245635
147 1 0.258193 0.253734 0.242028
148 1 0.374885 0.253766 0.245982
149 1 0.499859 0.246468 0.251708
150 1 0.630262 0.249678 0.253613
151 1 0.753809 0.249175 0.246918
152 1 0.873525 0.243376 0.252539
153 1 0.998656 0.374069 0.248524
154 1 0.122557 0.378599 0.254121
155 1 0.247763 0.37464 0.252898
156 1 0.382425 0.378526 0.24107
157 1 0.497423 0.3825 0.249396
158 1 0.622621 0.377273 0.249123
159 1 0.753076 0.367645 0.253304
160 1 0.881166 0.362524 0.255925
161 1 0.997381 0.503222 0.252737
162 1 0.118914 0.504252 0.256078
163 1 0.255248 0.495104 0.242481
164 1 0.371172 0.5005 0.252298
165 1 0.497088 0.501764 0.245078
166 1 0.628622 0.491522 0.248734
167 1 0.752575 0.49138 0.254466
168 1 0.875907 0.507577 0.248643
169 1 1.00169 0.623473 0.25008
170 1 0.13117 0.619088 0.250037
171 1 0.251125 0.627612 0.242264
172 1 0.36827 0.622743 0.255377
173 1 0.496879 0.623976 0.256013
174 1 0.624967 0.622806 0.251935
175 1 0.746488 0.633933 0.254944
176 1 0.870282 0.630507 0.249503
177 1 0.997325 0.74396 0.259854
178 1 0.125859 0.746601 0.251344
179 1 0.253247 0.744079 0.244284
180 1 0.386536 0.739223 0.246215
181 1 0.503148 0.742026 0.25296
182 1 0.626232 0.751653 0.248535
183 1 0.741648 0.75949 0.253884
184 1 0.870256 0.743201 0.254672
185 1 1.00541 0.868466 0.250638
186 1 0.133781 0.865072 0.244907
187 1 0.253668 0.871067 0.249591
188 1 0.382545 0.867503 0.24893
189 1 0.496629 0.877462 0.246047
190 1 0.625901 0.876299 0.251753
191 1 0.750214 0.876039 0.251288
192 1 0.878142 0.874189 0.251561
193 1 0.999443 0.99778 0.377678
194 1 0.119991 1.00076 0.373362
195 1 0.252023 0.996959 0.373328
196 1 0.378997 1.00496 0.366032
197 1 0.49315 1.01222 0.369092
198 1 0.614563 1.00539 0.381179
199 1 0.747583 1.00078 0.374829
200 1 0.876012 0.996381 0.367503
201 1 0.997022 0.128932 0.375311
202 1 0.126524 0.124705 0.375136
203 1 0.253574 0.131298 0.37302
204 1 0.376364 0.123757 0.377335
205 1 0.490236 0.134572 0.379784
206 1 0.620042 0.131914 0.374868
207 1 0.737489 0.125297 0.378681
208 1 0.880813 0.12814 0.357514
209 1 0.999708 0.244794 0.379437
210 1 0.126434 0.251271 0.374207
211 1 0.249889 0.252364 0.375506
212 1 0.364014 0.262677 0.37706
213 1 0.492963 0.253309 0.382642
214 1 0.615436 0.253747 0.379951
215 1 0.746589 0.247805 0.378118
216 1 0.866118 0.254976 0.381355
217 1 0.998603 0.37436 0.376118
218 1 0.128789 0.380872 0.383589
219 1 0.248521 0.385718 0.372423
220 1 0.370906 0.373062 0.388191
221 1 0.499992 0.378767 0.374947
222 1 0.624179 0.377361 0.377507
223 1 0.751048 0.375127 0.378534
224 1 0.871641 0.3769 0.374627
225 1 0.998342 0.506374 0.371115
226 1 0.126752 0.509081 0.37418
227 1 0.248114 0.504079 0.376754
228 1 0.370536 0.495537 0.37855
229 1 0.503093 0.493402 0.369371
230 1 0.615549 0.502657 0.380566
231 1 0.744664 0.499288 0.376895
232 1 0.873037 0.499944 0.376816
233 1 0.994339 0.62748 0.376572
234 1 0.12077 0.625334 0.373062
235 1 0.246468 0.633222 0.374153
236 1 0.373883 0.61514 0.381915
237 1 0.494345 0.616994 0.385483
238 1 0.619542 0.62306 0.378337
239 1 0.753697 0.626681 0.372468
240 1 0.876494 0.626236 0.37414
241 1 0.998279 0.746559 0.379806
242 1 0.123605 0.747767 0.376941
243 1 0.249649 0.745033 0.376431
244 1 0.375511 0.744156 0.373554
245 1 0.49566 0.746995 0.372326
246 1 0.624254 0.742737 0.373924
247 1 0.748564 0.753588 0.371972
248 1 0.870341 0.75224 0.372606
249 1 1.0089 0.864817 0.372256
250 1 0.130745 0.873073 0.374026
251 1 0.249062 0.869207 0.374581
252 1 0.379223 0.875681 0.369027
253 1 0.50614 0.873681 0.380002
254 1 0.620688 0.877337 0.372644
255 1 0.75027 0.876183 0.374957
256 1 0.877157 0.872896 0.370429
257 1 0.99737 1.00078 0.501276
258 1 0.123093 1.00066 0.494295
259 1 0.256331 0.998317 0.488936
260 1 0.375474 0.997681 0.501547
261 1 0.493265 1.00188 0.499674
262 1 0.617658 1.00501 0.499749
263 1 0.749627 0.996464 0.495958
264 1 0.867829 1.00548 0.496992
265 1 0.994504 0.124686 0.501098
266 1 0.128591 0.118682 0.501778
267 1 0.250655 0.127004 0.500014
268 1 0.368491 0.128451 0.501061
269 1 0.495961 0.125231 0.501488
270 1 0.61934 0.122281 0.50103
271 1 0.741072 0.127296 0.491587
272 1 0.874372 0.12012 0.494737
273 1 1.00192 0.248134 0.498972
274 1 0.121732 0.25042 0.498607
275 1 0.247037 0.252082 0.500758
276 1 0.374592 0.249874 0.498854
277 1 0.495353 0.244091 0.506367
278 1 0.619237 0.25059 0.498554
279 1 0.746523 0.251974 0.506665
280 1 0.874402 0.247459 0.497854
281 1 1.00097 0.375666 0.501543
282 1 0.125466 0.376728 0.505685
283 1 0.246972 0.371832 0.504007
284 1 0.377903 0.366648 0.506623
285 1 0.504382 0.37157 0.495633
286 1 0.625809 0.378238 0.492536
287 1 0.748973 0.369286 0.498737
288 1 0.879388 0.367685 0.50087
289 1 1.00175 0.508861 0.498735
290 1 0.135822 0.500928 0.490354
291 1 0.257878 0.492835 0.498358
292 1 0.379875 0.496431 0.501071
293 1 0.492098 0.494697 0.499863
294 1 0.628169 0.493666 0.500073
295 1 0.749278 0.501714 0.498692
296 1 0.872179 0.493858 0.508025
297 1 1.00448 0.623106 0.509057
298 1 0.126923 0.616871 0.509563
299 1 0.252533 0.621107 0.504712
300 1 0.372726 0.625006 0.50097
301 1 0.507715 0.617258 0.500211
302 1 0.62929 0.622727 0.50416
303 1 0.757154 0.623089 0.492621
304 1 0.878111 0.620967 0.500895
305 1 1.0014 0.751055 0.500732
306 1 0.127087 0.753717 0.493715
307 1 0.24634 0.746383 0.505815
308 1 0.376496 0.747852 0.499762
309 1 0.497239 0.753971 0.495713
310 1 0.629916 0.751929 0.496353
311 1 0.747238 0.751794 0.496168
312 1 0.877164 0.749942 0.487405
313 1 0.99383 0.878934 0.496852
314 1 0.123038 0.872913 0.496352
315 1 0.250134 0.869429 0.491509
316 1 0.373843 0.879398 0.484898
317 1 0.502827 0.873792 0.49703
318 1 0.627839 0.879119 0.496401
319 1 0.755302 0.864849 0.504646
320 1 0.878875 0.872619 0.492476
321 1 0.99676 0.995465 0.629485
322 1 0.127142 1.00074 0.616094
323 1 0.251961 1.00242 0.620819
324 1 0.374843 0.997325 0.628573
325 1 0.496365 1.00406 0.624351
326 1 0.621935 1.00264 0.628641
327 1 0.747897 0.990883 0.630581
328 1 0.86867 1.00072 0.624283
329 1 1.00113 0.123926 0.623589
330 1 0.128151 0.121214 0.620043
331 1 0.251865 0.11241 0.631485
332 1 0.369371 0.125363 0.625639
333 1 0.489007 0.13706 0.624988
334 1 0.619642 0.123626 0.633485
335 1 0.750614 0.119192 0.621955
336 1 0.86758 0.126212 0.624437
337 1 1.00506 0.255442 0.620262
338 1 0.130939 0.244784 0.62238
339 1 0.249232 0.240608 0.627228
340 1 0.369487 0.247128 0.629168
341 1 0.498566 0.257594 0.619409
342 1 0.619529 0.253101 0.632239
343 1 0.751969 0.246128 0.627876
344 1 0.873321 0.247652 0.626465
345 1 1.00276 0.374423 0.62392
346 1 0.125747 0.369988 0.631315
347 1 0.253501 0.372181 0.621186
348 1 0.367035 0.386369 0.627023
349 1 0.504881 0.378749 0.618282
350 1 0.626282 0.372817 0.622856
351 1 0.751251 0.375866 0.623626
352 1 0.881256 0.367115 0.632132
353 1 0.99749 0.497603 0.637668
354 1 0.120432 0.504138 0.628078
355 1 0.244159 0.498412 0.628679
356 1 0.368689 0.501689 0.632965
357 1 0.49879 0.497246 0.620791
358 1 0.629211 0.499152 0.619743
359 1 0.750172 0.494976 0.625527
360 1 0.881739 0.485032 0.630784
361 1 0.992683 0.63057 0.628008
362 1 0.126819 0.626692 0.62518
363 1 0.245166 0.62898 0.628934
364 1 0.37832 0.624399 0.630499
365 1 0.501929 0.624 0.622119
366 1 0.640966 0.625422 0.615709
367 1 0.758205 0.621066 0.618673
368 1 0.878917 0.621708 0.625917
369 1 0.991589 0.754986 0.627242
370 1 0.126964 0.746159 0.629463
371 1 0.246471 0.752814 0.628514
372 1 0.379901 0.747854 0.614031
373 1 0.500023 0.736269 0.62303
374 1 0.618299 0.752476 0.627866
375 1 0.750409 0.739329 0.629283
376 1 0.86465 0.749473 0.622965
377 1 1.00719 0.870485 0.620294
378 1 0.126476 0.875659 0.616566
379 1 0.252336 0.871782 0.623997
380 1 0.36878 0.874023 0.627738
381 1 0.497111 0.865612 0.626996
382 1 0.632403 0.874463 0.620674
383 1 0.749182 0.876769 0.623322
384 1 0.873514 0.871888 0.628004
385 1 1.00261 1.00369 0.748375
386 1 0.127604 1.00986 0.738549
387 1 0.250104 1.0022 0.755582
388 1 0.374284 0.997702 0.752189
389 1 0.496007 1.00526 0.745878
390 1 0.618523 1.0036 0.748399
391 1 0.738458 1.00163 0.746945
392 1 0.876081 0.997572 0.753559
393 1 0.998386 0.122972 0.749276
394 1 0.121004 0.127079 0.75022
395 1 0.253092 0.129284 0.751864