LAMMPS (22 Dec 2022)
OMP_NUM_THREADS environment is not set. Defaulting to 1 thread. (src/comm.cpp:98)
  using 1 OpenMP thread(s) per MPI task
package omp 4
set 4 OpenMP thread(s) per MPI task
using multi-threaded neighbor list subroutines

# INITIALIZATION
dimension 3
boundary p p p
units metal
atom_style atomic
atom_modify map array

# geometry
read_data	dataAg.pos
Reading data file ...
  triclinic box = (0 0 0) to (23.114102 20.017399 18.872584) with tilt (11.557051 11.557051 6.6724664)
WARNING: Triclinic box skew is large. LAMMPS will run inefficiently. (src/domain.cpp:220)
  1 by 1 by 1 MPI processor grid
  reading atoms ...
  512 atoms
  read_data CPU = 0.003 seconds

# DEFINE INTERATOMIC POTENTIAL
pair_style meam
pair_coeff * * AgAu.library.meam Ag Ag.parameter.meam Ag
neighbor 2.0 bin
neigh_modify delay 10 check yes

#Langevin random seed
variable r equal 57085
variable t equal 300
variable d equal 1

# initialize
velocity all create $t 28459 rot yes dist gaussian mom yes
velocity all create 300 28459 rot yes dist gaussian mom yes
reset_timestep 0

# fixes
fix      1 all npt temp $t $t $d iso 1. 1. 1. pchain 8 drag 1.0
fix      1 all npt temp 300 $t $d iso 1. 1. 1. pchain 8 drag 1.0
fix      1 all npt temp 300 300 $d iso 1. 1. 1. pchain 8 drag 1.0
fix      1 all npt temp 300 300 1 iso 1. 1. 1. pchain 8 drag 1.0
fix      2 all phonon 10 50000 500000 map.in AgPhonon

#
timestep 2e-3

# output
#                    1    2    3  4  5     6   7  8  9  10 11 12
thermo_style  custom step temp pe ke press vol lx ly lz xy xz yz
thermo  100

restart 2000000 restart.one restart.two

dump    	3 all atom 50000 dump_LJ_ANA.lammpstrj

# execution
run 	 2000000

CITE-CITE-CITE-CITE-CITE-CITE-CITE-CITE-CITE-CITE-CITE-CITE-CITE

Your simulation uses code contributions which should be cited:

- fix phonon command: doi:10.1016/j.cpc.2011.04.019

@Article{Kong11,
 author = {L. T. Kong},
 title = {Phonon Dispersion Measured Directly from Molecular Dynamics Simulations},
 journal = {Comput.\ Phys.\ Commun.},
 year =    2011,
 volume =  182,
 pages =   {2201--2207}
}

CITE-CITE-CITE-CITE-CITE-CITE-CITE-CITE-CITE-CITE-CITE-CITE-CITE

No /omp style for force computation currently active
Neighbor list info ...
  update: every = 1 steps, delay = 10 steps, check = yes
  max neighbors/atom: 2000, page size: 100000
  master list distance cutoff = 7
  ghost atom cutoff = 7
  binsize = 3.5, bins = 14 8 6
  2 neighbor lists, perpetual/occasional/extra = 2 0 0
  (1) pair meam, perpetual
      attributes: full, newton on, omp
      pair build: full/bin/atomonly/omp
      stencil: full/bin/3d
      bin: standard
  (2) pair meam, perpetual, half/full from (1)
      attributes: half, newton on, omp
      pair build: halffull/newton/omp
      stencil: none
      bin: none
Per MPI rank memory allocation (min/avg/max) = 14.67 | 14.67 | 14.67 Mbytes
   Step          Temp          PotEng         KinEng         Press          Volume           Lx             Ly             Lz             Xy             Xz             Yz      
         0   300           -1459.1983      19.81558       3214.9212      8732.0466      23.114102      20.017399      18.872584      11.557051      11.557051      6.6724664    
       100   144.72379     -1449.0198      9.5592861      13300.652      8707.8097      23.092696      19.998862      18.855107      11.546348      11.546348      6.6662872    
       200   161.72436     -1449.9172      10.682207      4918.3655      8770.5672      23.14804       20.046791      18.900295      11.57402       11.57402       6.6822636    
       300   166.4244      -1449.9532      10.992653      1627.8694      8799.7093      23.17365       20.06897       18.921206      11.586825      11.586825      6.6896565    
       400   155.03133     -1448.7948      10.240119      1282.7657      8810.617       23.183221      20.077258      18.92902       11.591611      11.591611      6.6924195    
       500   164.86029     -1449.0367      10.889341      301.29117      8817.6633      23.1894        20.082609      18.934065      11.5947        11.5947        6.6942031    
       600   159.57903     -1448.3025      10.540504      1106.1997      8816.2204      23.188135      20.081514      18.933032      11.594067      11.594067      6.6938379    
       700   164.61357     -1448.2117      10.873045     -693.78039      8833.916       23.203639      20.09494       18.945691      11.601819      11.601819      6.6983135    
       800   152.21613     -1446.983       10.05417      -2289.3501      8854.3055      23.221477      20.110389      18.960256      11.610738      11.610738      6.703463     
       900   180.43559     -1448.4176      11.918119     -4374.971       8866.3631      23.232013      20.119513      18.968859      11.616006      11.616006      6.7065044    
      1000   172.16462     -1447.4841      11.371806     -1384.8358      8845.2024      23.213516      20.103495      18.953756      11.606758      11.606758      6.7011649    
      1100   150.14207     -1445.59        9.9171741      426.84485      8838.2035      23.207392      20.098191      18.948756      11.603696      11.603696      6.699397     
      1200   186.43683     -1447.546       12.314513     -2002.1006      8849.6585      23.217414      20.10687       18.956938      11.608707      11.608707      6.70229      
      1300   185.76865     -1447.0777      12.270379     -7.1335486      8837.1436      23.206464      20.097387      18.947998      11.603232      11.603232      6.6991291    
      1400   178.83845     -1446.1923      11.812625      73.7041        8840.0132      23.208976      20.099563      18.950049      11.604488      11.604488      6.6998542    
      1500   171.3821      -1445.2689      11.320119     -346.69086      8849.2175      23.217028      20.106536      18.956624      11.608514      11.608514      6.7021787    
      1600   191.06275     -1446.1358      12.620064     -3100.4478      8870.5888      23.235703      20.122709      18.971872      11.617852      11.617852      6.7075697    
      1700   195.43612     -1446.005       12.908934     -2551.7184      8866.8529      23.232441      20.119884      18.969208      11.61622       11.61622       6.7066279    
      1800   200.68833     -1445.9457      13.255852     -1627.556       8858.8991      23.225492      20.113866      18.963534      11.612746      11.612746      6.704622     
      1900   201.10301     -1445.5477      13.283243      1066.8816      8837.1581      23.206477      20.097398      18.948008      11.603238      11.603238      6.6991328    
      2000   186.79537     -1444.1758      12.338195      2905.8273      8828.1511      23.19859       20.090568      18.941569      11.599295      11.599295      6.6968561    
      2100   201.76165     -1444.7612      13.326747      762.59002      8844.2943      23.212722      20.102807      18.953107      11.606361      11.606361      6.7009356    
      2200   222.39897     -1445.7104      14.689882     -926.35907      8856.0124      23.222969      20.111681      18.961474      11.611484      11.611484      6.7038937    
      2300   219.2326      -1445.0779      14.480737     -1353.9319      8863.3017      23.229339      20.117197      18.966675      11.614669      11.614669      6.7057325    
      2400   198.21768     -1443.2788      13.092661      129.52909      8859.0638      23.225636      20.113991      18.963652      11.612818      11.612818      6.7046635    
      2500   221.09709     -1444.3794      14.60389      -979.86574      8864.1398      23.230071      20.117832      18.967273      11.615035      11.615035      6.7059438    
      2600   226.41593     -1444.3289      14.95521       318.54633      8853.7667      23.221006      20.109981      18.959871      11.610503      11.610503      6.703327     
      2700   232.16186     -1444.3132      15.33474      -36.644551      8857.9643      23.224675      20.113159      18.962867      11.612337      11.612337      6.7043862    
      2800   229.30075     -1443.7327      15.145758      127.44034      8859.0214      23.225599      20.113959      18.963622      11.612799      11.612799      6.7046529    
      2900   227.05644     -1443.1991      14.997517      1201.1404      8853.8728      23.221099      20.110061      18.959947      11.610549      11.610549      6.7033537    
      3000   233.87382     -1443.2674      15.447818     -169.46504      8865.3074      23.231091      20.118715      18.968106      11.615545      11.615545      6.7062383    
      3100   245.22148     -1443.6493      16.197353     -1362.47        8876.1958      23.240598      20.126948      18.975868      11.620299      11.620299      6.7089827    
      3200   248.6445      -1443.5122      16.42345      -1535.4903      8879.278       23.243288      20.129277      18.978064      11.621644      11.621644      6.7097591    
      3300   260.65716     -1443.9494      17.21691      -155.11144      8864.3941      23.230293      20.118024      18.967454      11.615146      11.615146      6.706008     
      3400   257.10027     -1443.3606      16.98197       536.45687      8861.325       23.227612      20.115702      18.965265      11.613806      11.613806      6.7052339    
      3500   256.73145     -1442.9929      16.957609      1325.3858      8855.5234      23.222542      20.111311      18.961125      11.611271      11.611271      6.7037703    
      3600   264.31621     -1443.1544      17.458597      1516.7652      8852.9423      23.220285      20.109357      18.959283      11.610143      11.610143      6.7031189    
      3700   247.10266     -1441.6895      16.321609      1830.3233      8857.6923      23.224437      20.112953      18.962673      11.612219      11.612219      6.7043175    
      3800   251.87772     -1441.687       16.63701       38.863272      8873.9978      23.238679      20.125287      18.974302      11.61934       11.61934       6.7084289    
      3900   273.9024      -1442.8236      18.091783     -1265.0465      8880.0162      23.243932      20.129835      18.97859       11.621966      11.621966      6.7099451    
      4000   269.18019     -1442.2098      17.779872     -3.0807175      8874.0477      23.238723      20.125324      18.974337      11.619361      11.619361      6.7084414    
      4100   276.99349     -1442.4371      18.295956      422.64429      8867.6277      23.233117      20.12047       18.96976       11.616559      11.616559      6.7068233    
      4200   257.02239     -1440.8293      16.976826      2961.532       8855.0857      23.222159      20.11098       18.960813      11.611079      11.611079      6.7036598    
      4300   279.76846     -1442.0551      18.479248      320.36729      8870.4642      23.235594      20.122615      18.971783      11.617797      11.617797      6.7075383    
      4400   269.19861     -1441.0959      17.781089      514.34929      8874.4684      23.23909       20.125642      18.974637      11.619545      11.619545      6.7085474    
      4500   273.30725     -1441.103       18.052473     -590.53826      8883.925       23.247342      20.132788      18.981374      11.623671      11.623671      6.7109295    
      4600   267.4749      -1440.4665      17.667235      94.933263      8882.6243      23.246207      20.131806      18.980448      11.623103      11.623103      6.7106019    
      4700   263.3529      -1439.9711      17.394968     -596.86477      8889.4818      23.252188      20.136985      18.985331      11.626094      11.626094      6.7123284    
      4800   273.77996     -1440.4261      18.083696     -2623.8648      8906.4155      23.266943      20.149763      18.997379      11.633471      11.633471      6.7165878    
      4900   279.28762     -1440.5619      18.447488     -1684.8763      8900.863       23.262107      20.145575      18.99343       11.631053      11.631053      6.7151918    
      5000   284.96093     -1440.7287      18.822221     -1973.7591      8899.9745      23.261333      20.144905      18.992798      11.630666      11.630666      6.7149683    
      5100   277.96445     -1440.0695      18.36009      -1183.8154      8897.7991      23.259437      20.143263      18.99125       11.629719      11.629719      6.7144212    
      5200   280.01763     -1440.024       18.495706     -39.305161      8887.9493      23.250851      20.135828      18.98424       11.625426      11.625426      6.7119426    
      5300   292.38671     -1440.6474      19.312708      611.93702      8876.2442      23.24064       20.126985      18.975903      11.62032       11.62032       6.7089949    
      5400   283.68942     -1439.9038      18.738235      2234.3281      8866.0691      23.231756      20.119291      18.968649      11.615878      11.615878      6.7064303    
      5500   301.64961     -1440.9278      19.92454       280.46632      8881.4598      23.245191      20.130926      18.979619      11.622596      11.622596      6.7103087    
      5600   300.66651     -1440.7117      19.859605     -217.566        8886.3192      23.24943       20.134597      18.983079      11.624715      11.624715      6.7115323    
      5700   294.05176     -1440.1343      19.422688      811.08412      8879.4538      23.243441      20.12941       18.97819       11.62172       11.62172       6.7098034    
      5800   299.51136     -1440.3574      19.783305      1635.1845      8873.7831      23.238492      20.125124      18.974149      11.619246      11.619246      6.7083748    
      5900   300.3483      -1440.2991      19.838586     -61.369216      8887.5588      23.250511      20.135533      18.983962      11.625255      11.625255      6.7118443    
      6000   285.24572     -1439.1856      18.841031      726.01063      8886.9526      23.249982      20.135075      18.983531      11.624991      11.624991      6.7116917    
      6100   302.46393     -1440.2178      19.978327     -79.689598      8887.4936      23.250454      20.135484      18.983916      11.625227      11.625227      6.7118279    
      6200   293.50569     -1439.5314      19.386619      365.27884      8889.5721      23.252266      20.137053      18.985395      11.626133      11.626133      6.7123511    
      6300   303.12587     -1440.084       20.02205      -1012.535       8896.7342      23.258509      20.14246       18.990493      11.629255      11.629255      6.7141533    
      6400   295.42617     -1439.5012      19.51347       108.00667      8891.5648      23.254004      20.138558      18.986814      11.627002      11.627002      6.7128526    
      6500   294.70771     -1439.387       19.466014      573.37278      8889.5786      23.252272      20.137058      18.9854        11.626136      11.626136      6.7123527    
      6600   301.24308     -1439.7634      19.897688     -334.37018      8892.0262      23.254406      20.138906      18.987142      11.627203      11.627203      6.7129687    
      6700   302.67321     -1439.804       19.992151      1302.8262      8878.4744      23.242586      20.12867       18.977492      11.621293      11.621293      6.7095567    
      6800   311.04876     -1440.3197      20.545372      614.95626      8882.4303      23.246038      20.131659      18.98031       11.623019      11.623019      6.7105531    
      6900   297.28789     -1439.3743      19.63644       1308.6528      8882.2358      23.245868      20.131512      18.980171      11.622934      11.622934      6.7105041    
      7000   298.74671     -1439.4518      19.732798      220.88576      8888.0552      23.250944      20.135908      18.984316      11.625472      11.625472      6.7119693    
      7100   301.06315     -1439.5795      19.885803      708.67241      8888.6829      23.251491      20.136382      18.984762      11.625746      11.625746      6.7121273    
      7200   295.32797     -1439.1871      19.506984     -1164.4252      8904.7559      23.265497      20.148512      18.996199      11.632749      11.632749      6.7161706    
      7300   301.99605     -1439.6135      19.947423     -2229.1545      8909.9881      23.270053      20.152457      18.999918      11.635027      11.635027      6.7174858    
      7400   286.93858     -1438.6067      18.952848      274.573        8897.5446      23.259215      20.143071      18.991069      11.629608      11.629608      6.7143571    
      7500   309.11786     -1440.068       20.417833     -2475.2858      8911.2681      23.271168      20.153422      19.000828      11.635584      11.635584      6.7178074    
      7600   313.70035     -1440.379       20.720515     -2433.135       8910.9161      23.270861      20.153157      19.000578      11.635431      11.635431      6.717719     
      7700   299.06345     -1439.4452      19.753719      646.31189      8887.126       23.250133      20.135206      18.983654      11.625067      11.625067      6.7117354    
      7800   296.20864     -1439.2382      19.565154      2026.1079      8874.9097      23.239475      20.125976      18.974952      11.619738      11.619738      6.7086586    
      7900   300.24294     -1439.4969      19.831627      1236.6066      8878.6045      23.2427        20.128768      18.977584      11.62135       11.62135       6.7095895    
      8000   303.4239      -1439.7034      20.041736      1331.6002      8880.3164      23.244194      20.130062      18.978804      11.622097      11.622097      6.7100207    
      8100   318.69573     -1440.7116      21.050469     -258.62997      8888.6151      23.251432      20.136331      18.984714      11.625716      11.625716      6.7121102    
      8200   300.26933     -1439.4976      19.83337       935.43639      8884.1732      23.247558      20.132976      18.981551      11.623779      11.623779      6.7109919    
      8300   305.48645     -1439.84        20.177971      709.0773       8884.1778      23.247562      20.132979      18.981555      11.623781      11.623781      6.7109931    
      8400   301.77464     -1439.5948      19.932799      1427.0298      8878.343       23.242472      20.128571      18.977398      11.621236      11.621236      6.7095236    
      8500   310.0013      -1440.1407      20.476186     -231.91317      8890.7143      23.253262      20.137916      18.986209      11.626631      11.626631      6.7126386    
      8600   296.64825     -1439.2597      19.594191      1164.8112      8879.468       23.243453      20.129421      18.9782        11.621727      11.621727      6.709807     
      8700   293.93135     -1439.1072      19.414734      1161.0733      8885.1494      23.24841       20.133713      18.982246      11.624205      11.624205      6.7112378    
      8800   313.40908     -1440.3757      20.701276     -2472.7942      8909.3784      23.269522      20.151998      18.999485      11.634761      11.634761      6.7173325    
      8900   292.17433     -1438.9768      19.29868      -2113.7205      8912.4089      23.27216       20.154282      19.001639      11.63608       11.63608       6.7180941    
      9000   289.12252     -1438.788       19.097101     -943.08829      8904.0483      23.264881      20.147978      18.995695      11.632441      11.632441      6.7159927    
      9100   300.00366     -1439.501       19.815822     -720.00356      8899.7873      23.261169      20.144764      18.992665      11.630585      11.630585      6.7149212    
      9200   294.76029     -1439.1563      19.469487     -1338.2985      8906.7911      23.26727       20.150047      18.997646      11.633635      11.633635      6.7166822    
      9300   299.66459     -1439.49        19.793425     -795.36628      8899.2097      23.260666      20.144328      18.992254      11.630333      11.630333      6.7147759    
      9400   306.40725     -1439.9306      20.238791      515.59368      8884.5023      23.247845      20.133225      18.981786      11.623923      11.623923      6.7110748    
      9500   281.05213     -1438.2545      18.564037      1795.6357      8880.1805      23.244075      20.129959      18.978707      11.622037      11.622037      6.7099865    
      9600   299.24985     -1439.4533      19.766031     -486.54889      8895.1957      23.257168      20.141299      18.989398      11.628584      11.628584      6.7137662    
      9700   292.39662     -1438.9968      19.313362      310.74363      8892.0876      23.254459      20.138953      18.987186      11.62723       11.62723       6.7129842    
      9800   292.79548     -1439.0226      19.339708     -1116.7871      8903.1912      23.264135      20.147332      18.995086      11.632067      11.632067      6.7157772    
      9900   285.95798     -1438.5684      18.888078     -814.72707      8902.7041      23.26371       20.146964      18.99474       11.631855      11.631855      6.7156547    
     10000   296.71988     -1439.2824      19.598922     -1680.5939      8907.5648      23.267943      20.15063       18.998196      11.633972      11.633972      6.7168767    
     10100   296.01241     -1439.2327      19.552192     -987.11451      8903.6178      23.264506      20.147653      18.995389      11.632253      11.632253      6.7158845    
     10200   304.63117     -1439.806       20.121478     -1615.4702      8904.8096      23.265544      20.148552      18.996237      11.632772      11.632772      6.7161841    
     10300   295.65648     -1439.2176      19.528682     -205.29311      8894.1396      23.256248      20.140502      18.988646      11.628124      11.628124      6.7135005    
     10400   301.52872     -1439.6065      19.916555      628.5864       8885.3947      23.248624      20.133899      18.982421      11.624312      11.624312      6.7112995    
     10500   297.76326     -1439.3485      19.667839      1669.4919      8876.5873      23.240939      20.127244      18.976147      11.62047       11.62047       6.7090813    
     10600   292.04088     -1438.9692      19.289865      2212.4559      8874.2426      23.238893      20.125472      18.974476      11.619446      11.619446      6.7084906    
     10700   313.44858     -1440.3817      20.703885      295.60484      8882.4458      23.246051      20.131671      18.980321      11.623026      11.623026      6.710557     
     10800   298.41903     -1439.3892      19.711154      937.76992      8884.0599      23.247459      20.13289       18.981471      11.62373       11.62373       6.7109634    
     10900   302.99024     -1439.6927      20.013091     -620.46209      8896.5159      23.258319      20.142295      18.990337      11.629159      11.629159      6.7140983    
     11000   296.68069     -1439.2762      19.596333     -894.4699       8900.4675      23.261762      20.145277      18.993149      11.630881      11.630881      6.7150923    
     11100   303.04462     -1439.6934      20.016683     -1206.7613      8902.8696      23.263855      20.147089      18.994857      11.631927      11.631927      6.7156963    
     11200   293.3029      -1439.0514      19.373224     -233.11395      8896.7847      23.258553      20.142498      18.990529      11.629277      11.629277      6.714166     
     11300   307.26372     -1439.9749      20.295363     -760.84936      8896.2935      23.258125      20.142127      18.990179      11.629063      11.629063      6.7140424    
     11400   308.6143      -1440.0718      20.384571      18.821486      8888.5596      23.251383      20.136289      18.984675      11.625692      11.625692      6.7120963    
     11500   294.53498     -1439.1412      19.454605      1509.9301      8879.8259      23.243766      20.129691      18.978455      11.621883      11.621883      6.7098971    
     11600   293.20541     -1439.0481      19.366784      1786.8332      8878.3853      23.242509      20.128603      18.977428      11.621254      11.621254      6.7095343    
     11700   306.85735     -1439.9486      20.268522     -127.31084      8890.1667      23.252785      20.137502      18.985819      11.626392      11.626392      6.7125008    
     11800   304.92954     -1439.8197      20.141186      102.92089      8888.706       23.251511      20.136399      18.984779      11.625756      11.625756      6.7121331    
     11900   304.60927     -1439.7968      20.120032      472.86326      8885.0878      23.248356      20.133667      18.982203      11.624178      11.624178      6.7112222    
     12000   296.97511     -1439.2963      19.615781      1292.6129      8881.1358      23.244908      20.130681      18.979388      11.622454      11.622454      6.7102271    
     12100   311.47243     -1440.254       20.573357     -474.29341      8892.6004      23.254906      20.13934       18.987551      11.627453      11.627453      6.7131132    
     12200   302.03172     -1439.6295      19.949779     -941.02572      8900.6726      23.261941      20.145432      18.993295      11.63097       11.63097       6.7151439    
     12300   297.56369     -1439.3324      19.654657      627.49614      8887.6019      23.250548      20.135566      18.983993      11.625274      11.625274      6.7118552    
     12400   297.01923     -1439.2922      19.618695      1317.7637      8880.8079      23.244622      20.130433      18.979154      11.622311      11.622311      6.7101445    
     12500   296.61398     -1439.2893      19.591927     -228.25861      8893.6486      23.25582       20.140131      18.988297      11.62791       11.62791       6.713377     
     12600   308.25262     -1440.0383      20.360682     -2368.8291      8911.6121      23.271467      20.153682      19.001073      11.635733      11.635733      6.7178938    
     12700   296.23529     -1439.2561      19.566914     -1095.8253      8902.6899      23.263698      20.146953      18.994729      11.631849      11.631849      6.7156511    
     12800   303.06869     -1439.7268      20.018273     -836.48522      8896.4504      23.258262      20.142246      18.990291      11.629131      11.629131      6.7140819    
     12900   299.07689     -1439.4426      19.754607      122.62996      8891.4184      23.253876      20.138447      18.98671       11.626938      11.626938      6.7128158    
     13000   298.82432     -1439.4224      19.737924      508.68365      8887.4966      23.250457      20.135486      18.983918      11.625228      11.625228      6.7118287    
     13100   305.72997     -1439.883       20.194056      620.00482      8883.5234      23.246991      20.132485      18.981088      11.623496      11.623496      6.7108283    
     13200   300.10123     -1439.5018      19.822267      1940.0588      8875.9958      23.240423      20.126797      18.975726      11.620212      11.620212      6.7089323    
     13300   308.47284     -1440.0538      20.375227      979.12153      8880.6259      23.244464      20.130296      18.979025      11.622232      11.622232      6.7100986    
     13400   308.53128     -1440.0577      20.379088      1014.3087      8879.8763      23.24381       20.12973       18.978491      11.621905      11.621905      6.7099098    
     13500   306.16917     -1439.9023      20.223066      1295.1421      8877.6929      23.241904      20.12808       18.976935      11.620952      11.620952      6.7093598    
     13600   311.9716      -1440.2821      20.606328      1071.1675      8878.4975      23.242606      20.128688      18.977508      11.621303      11.621303      6.7095625    
     13700   301.83735     -1439.6165      19.93694       1157.8326      8879.5526      23.243527      20.129485      18.97826       11.621764      11.621764      6.7098283    
     13800   304.37449     -1439.7799      20.104524      254.83619      8887.7405      23.250669      20.13567       18.984091      11.625335      11.625335      6.7118901    
     13900   303.04752     -1439.6906      20.016875     -106.41229      8893.0589      23.255306      20.139686      18.987877      11.627653      11.627653      6.7132286    
     14000   297.86569     -1439.3517      19.674605     -1126.8027      8902.6209      23.263638      20.146901      18.99468       11.631819      11.631819      6.7156338    
     14100   298.52655     -1439.3999      19.718256     -1277.012       8903.8351      23.264695      20.147817      18.995544      11.632348      11.632348      6.7159391    
     14200   310.46067     -1440.1971      20.506528     -1967.1173      8906.4688      23.266989      20.149804      18.997417      11.633495      11.633495      6.7166012    
     14300   300.48986     -1439.5677      19.847937      516.52568      8888.0367      23.250928      20.135894      18.984302      11.625464      11.625464      6.7119646    
     14400   298.76678     -1439.4425      19.734124      1692.9717      8877.9621      23.242139      20.128283      18.977127      11.62107       11.62107       6.7094277    
     14500   298.79633     -1439.4313      19.736075      1721.2074      8876.7353      23.241069      20.127356      18.976253      11.620534      11.620534      6.7091186    
     14600   306.96821     -1439.9672      20.275844      900.59413      8883.3083      23.246804      20.132323      18.980935      11.623402      11.623402      6.7107742    
     14700   302.22018     -1439.6522      19.962228      281.90254      8887.5001      23.25046       20.135489      18.98392       11.62523       11.62523       6.7118295    
     14800   292.28895     -1438.9916      19.30625       1039.7781      8884.1271      23.247518      20.132941      18.981518      11.623759      11.623759      6.7109804    
     14900   300.23758     -1439.517       19.831273      652.96177      8886.8794      23.249918      20.13502       18.983478      11.624959      11.624959      6.7116733    
     15000   297.96717     -1439.3648      19.681308     -144.87532      8894.0655      23.256183      20.140446      18.988594      11.628092      11.628092      6.7134819    
     15100   289.88992     -1438.8228      19.14779      -291.45635      8898.408       23.259968      20.143723      18.991684      11.629984      11.629984      6.7145743    
     15200   299.47869     -1439.4537      19.781147     -1573.4232      8903.1049      23.264059      20.147267      18.995025      11.63203       11.63203       6.7157555    
     15300   277.55614     -1438.0046      18.33312       984.03637      8888.1567      23.251032      20.135984      18.984388      11.625516      11.625516      6.7119948    
     15400   300.61988     -1439.5279      19.856524     -331.21929      8894.9241      23.256932      20.141094      18.989205      11.628466      11.628466      6.7136979    
     15500   297.84937     -1439.3582      19.673527     -150.24983      8894.3971      23.256472      20.140696      18.98883       11.628236      11.628236      6.7135653    
     15600   295.5426      -1439.1951      19.52116      -267.69576      8896.2858      23.258118      20.142121      18.990174      11.629059      11.629059      6.7140405    
     15700   314.06899     -1440.4107      20.744864     -3113.3425      8916.697       23.275892      20.157514      19.004686      11.637946      11.637946      6.7191713    
     15800   291.50401     -1438.9301      19.254404     -2290.8358      8917.2496      23.276373      20.15793       19.005079      11.638187      11.638187      6.7193101    
     15900   301.16871     -1439.5777      19.892776     -2229.4189      8911.8851      23.271705      20.153887      19.001267      11.635852      11.635852      6.7179624    
     16000   302.20767     -1439.6556      19.961401     -1178.4783      8902.3213      23.263377      20.146675      18.994467      11.631688      11.631688      6.7155585    
     16100   296.36826     -1439.283       19.575697      40.87862       8892.8126      23.255091      20.1395        18.987702      11.627546      11.627546      6.7131666    
     16200   293.42189     -1439.0781      19.381083      2347.5588      8872.49        23.237363      20.124147      18.973227      11.618681      11.618681      6.7080489    
     16300   307.99398     -1440.0374      20.343598      1674.7947      8876.0614      23.24048       20.126846      18.975772      11.62024       11.62024       6.7089488    
     16400   304.3088      -1439.7882      20.100185     -81.323566      8892.3501      23.254688      20.139151      18.987373      11.627344      11.627344      6.7130502    
     16500   297.5338      -1439.3408      19.652683     -1235.9945      8902.9602      23.263933      20.147157      18.994922      11.631967      11.631967      6.7157191    
     16600   297.57587     -1439.3377      19.655461     -120.41331      8894.9462      23.256951      20.14111       18.989221      11.628475      11.628475      6.7137035    
     16700   301.97517     -1439.6237      19.946044      189.37904      8890.2717      23.252876      20.137582      18.985894      11.626438      11.626438      6.7125272    
     16800   306.52665     -1439.9232      20.246678      420.96446      8885.2214      23.248472      20.133768      18.982298      11.624236      11.624236      6.7112559    
     16900   309.70695     -1440.1286      20.456743      656.07652      8881.253       23.245011      20.13077       18.979471      11.622505      11.622505      6.7102566    
     17000   310.3084      -1440.1638      20.49647       1682.71        8873.602       23.238334      20.124987      18.97402       11.619167      11.619167      6.7083291    
     17100   290.08259     -1438.8335      19.160516      2971.856       8867.8772      23.233335      20.120659      18.969938      11.616668      11.616668      6.7068862    
     17200   307.67134     -1440.0019      20.322287     -627.92849      8891.8959      23.254292      20.138808      18.98705       11.627146      11.627146      6.7129359    
     17300   315.97015     -1440.5389      20.87044      -813.36664      8895.6633      23.257576      20.141652      18.989731      11.628788      11.628788      6.7138839    
     17400   303.72552     -1439.7384      20.061658     -36.858695      8889.2333      23.251971      20.136798      18.985154      11.625985      11.625985      6.7122658    
     17500   298.18909     -1439.374       19.695966     -55.590767      8890.0698      23.2527        20.137429      18.98575       11.62635       11.62635       6.7124764    
     17600   293.91368     -1439.0814      19.413567      1284.34        8882.2072      23.245843      20.131491      18.980151      11.622922      11.622922      6.7104969    
     17700   302.40108     -1439.6462      19.974177      128.45349      8889.077       23.251835      20.136679      18.985043      11.625917      11.625917      6.7122265    
     17800   293.48799     -1439.0584      19.385449      874.2816       8884.4412      23.247792      20.133178      18.981742      11.623896      11.623896      6.7110594    
     17900   294.86246     -1439.1469      19.476236      1258.5495      8880.3051      23.244184      20.130054      18.978796      11.622092      11.622092      6.7100178    
     18000   298.86428     -1439.4191      19.740564      771.55715      8885.5017      23.248717      20.133979      18.982497      11.624358      11.624358      6.7113264    
     18100   313.44059     -1440.3795      20.703357     -569.79017      8893.081       23.255325      20.139702      18.987893      11.627663      11.627663      6.7132341    
     18200   299.99213     -1439.4887      19.815061     -421.49718      8896.6758      23.258458      20.142416      18.990451      11.629229      11.629229      6.7141386    
     18300   305.31479     -1439.8457      20.166633     -1319.4023      8902.6369      23.263652      20.146913      18.994692      11.631826      11.631826      6.7156378    
     18400   294.23583     -1439.121       19.434846     -1515.1444      8903.4526      23.264362      20.147529      18.995272      11.632181      11.632181      6.7158429    
     18500   285.17167     -1438.5226      18.836141      658.37886      8889.696       23.252374      20.137147      18.985484      11.626187      11.626187      6.7123823    
     18600   304.71599     -1439.8116      20.12708       452.32833      8885.4057      23.248633      20.133907      18.982429      11.624317      11.624317      6.7113023    
     18700   303.3909      -1439.7238      20.039556      1200.96        8880.4135      23.244278      20.130135      18.978873      11.622139      11.622139      6.7100451    
     18800   303.49082     -1439.7276      20.046156      1213.4632      8880.9834      23.244775      20.130566      18.979279      11.622388      11.622388      6.7101887    
     18900   316.93725     -1440.6137      20.934318      463.20932      8882.6931      23.246267      20.131858      18.980497      11.623133      11.623133      6.7106192    
     19000   289.67542     -1438.8156      19.133622      1269.6569      8882.0369      23.245695      20.131362      18.98003       11.622847      11.622847      6.710454     
     19100   310.48113     -1440.1785      20.507879     -575.00667      8892.992       23.255248      20.139635      18.98783       11.627624      11.627624      6.7132118    
     19200   303.40195     -1439.7095      20.040285     -584.00458      8894.4127      23.256486      20.140708      18.988841      11.628243      11.628243      6.7135692    
     19300   298.25969     -1439.3732      19.700629      426.01987      8887.8379      23.250754      20.135744      18.984161      11.625377      11.625377      6.7119146    
     19400   299.39806     -1439.4458      19.775821      1101.9279      8881.971       23.245637      20.131312      18.979983      11.622819      11.622819      6.7104374    
     19500   313.22591     -1440.3577      20.689177     -93.005127      8886.2627      23.24938       20.134554      18.983039      11.62469       11.62469       6.711518     
     19600   300.76255     -1439.543       19.865948     -171.01763      8893.0177      23.25527       20.139655      18.987848      11.627635      11.627635      6.7132182    
     19700   304.05788     -1439.7567      20.083611     -331.76019      8892.6445      23.254945      20.139373      18.987582      11.627472      11.627472      6.7131243    
     19800   300.24483     -1439.5053      19.831752     -369.06676      8895.2144      23.257185      20.141313      18.989411      11.628592      11.628592      6.7137709    
     19900   300.27749     -1439.5084      19.833909      152.50436      8890.5862      23.25315       20.137819      18.986117      11.626575      11.626575      6.7126063    
     20000   305.69804     -1439.8672      20.191947      547.13824      8887.0397      23.250058      20.135141      18.983592      11.625029      11.625029      6.7117136    
     20100   304.32457     -1439.7669      20.101226      693.42898      8885.0643      23.248335      20.133649      18.982186      11.624168      11.624168      6.7112163    
     20200   291.01571     -1438.8917      19.222151      714.58385      8890.1518      23.252772      20.137491      18.985808      11.626386      11.626386      6.712497     
     20300   298.04853     -1439.354       19.686682      646.98492      8887.8541      23.250768      20.135756      18.984172      11.625384      11.625384      6.7119187    
     20400   303.02999     -1439.6826      20.015717     -88.080797      8893.4206      23.255621      20.139959      18.988135      11.627811      11.627811      6.7133196    
     20500   306.10046     -1439.8802      20.218528     -706.72657      8897.3379      23.259035      20.142915      18.990922      11.629518      11.629518      6.7143051    
     20600   289.91267     -1438.8159      19.149293      195.18395      8894.3364      23.25642       20.14065       18.988787      11.62821       11.62821       6.71355      
     20700   310.06431     -1440.1425      20.480347     -1698.3752      8904.7707      23.26551       20.148523      18.996209      11.632755      11.632755      6.7161743    
     20800   297.68211     -1439.3254      19.662479     -1126.915       8903.9156      23.264766      20.147878      18.995601      11.632383      11.632383      6.7159593    
     20900   299.67191     -1439.4711      19.793909     -355.59186      8896.2043      23.258047      20.14206       18.990116      11.629024      11.629024      6.71402      
     21000   303.70475     -1439.7276      20.060286      635.08144      8886.1467      23.249279      20.134467      18.982957      11.62464       11.62464       6.7114888    
     21100   299.66215     -1439.4608      19.793265      1304.9369      8881.88        23.245558      20.131243      18.979918      11.622779      11.622779      6.7104145    
     21200   297.27387     -1439.3092      19.635514      705.04405      8884.4715      23.247818      20.133201      18.981764      11.623909      11.623909      6.7110671    
     21300   277.07706     -1437.987       18.301476      3008.3174      8871.296       23.236321      20.123244      18.972376      11.61816       11.61816       6.707748     
     21400   303.41853     -1439.7412      20.041381     -109.86138      8889.8932      23.252546      20.137296      18.985624      11.626273      11.626273      6.7124319    
     21500   304.75292     -1439.8187      20.12952      -872.73609      8897.4718      23.259152      20.143016      18.991018      11.629576      11.629576      6.7143388    
     21600   290.55628     -1438.8753      19.191804     -5.5744427      8896.0885      23.257947      20.141973      18.990033      11.628973      11.628973      6.7139908    
     21700   307.47517     -1439.9849      20.30933      -980.18197      8898.232       23.259814      20.14359       18.991558      11.629907      11.629907      6.71453      
     21800   303.75563     -1439.7405      20.063647     -958.58593      8898.8813      23.26038       20.14408       18.99202       11.63019       11.63019       6.7146933    
     21900   290.62418     -1438.8713      19.196289      135.83575      8893.4632      23.255658      20.139991      18.988165      11.627829      11.627829      6.7133303    
     22000   297.71407     -1439.3397      19.66459      -686.03424      8898.5669      23.260106      20.143843      18.991797      11.630053      11.630053      6.7146143    
     22100   304.41418     -1439.7824      20.107145     -825.3176       8895.9135      23.257794      20.14184       18.989909      11.628897      11.628897      6.7139468    
     22200   298.92403     -1439.4182      19.74451       471.58394      8887.8932      23.250802      20.135786      18.9842        11.625401      11.625401      6.7119285    
     22300   313.99079     -1440.4139      20.739699     -227.51148      8889.8306      23.252492      20.137249      18.98558       11.626246      11.626246      6.7124162    
     22400   301.34367     -1439.5891      19.904333      1269.3724      8877.4824      23.241721      20.12792       18.976785      11.62086       11.62086       6.7093068    
     22500   293.94645     -1439.1017      19.415732      1972.3308      8874.0568      23.238731      20.125331      18.974344      11.619365      11.619365      6.7084437    
     22600   305.80801     -1439.8882      20.199211      394.70574      8885.2592      23.248505      20.133796      18.982325      11.624253      11.624253      6.7112654    
     22700   300.8087      -1439.5585      19.868996      1071.6306      8882.191       23.245829      20.131478      18.980139      11.622914      11.622914      6.7104928    
     22800   292.05483     -1438.9832      19.290787      1307.337       8881.8961      23.245572      20.131256      18.979929      11.622786      11.622786      6.7104185    
     22900   303.07598     -1439.7228      20.018755     -698.45911      8897.8319      23.259466      20.143288      18.991274      11.629733      11.629733      6.7144294    
     23000   294.67059     -1439.1671      19.463562     -1792.0001      8911.2137      23.27112       20.153381      19.00079       11.63556       11.63556       6.7177937    
     23100   304.11835     -1439.7834      20.087605     -2151.7274      8910.1067      23.270156      20.152547      19.000003      11.635078      11.635078      6.7175155    
     23200   307.6617      -1440.0206      20.32165      -1733.76        8904.8059      23.265541      20.148549      18.996234      11.63277       11.63277       6.7161832    
     23300   302.80953     -1439.7104      20.001155     -334.3712       8893.6309      23.255805      20.140118      18.988285      11.627902      11.627902      6.7133725    
     23400   301.91888     -1439.6491      19.942326      87.185715      8890.9011      23.253425      20.138057      18.986342      11.626712      11.626712      6.7126856    
     23500   303.31021     -1439.7344      20.034226      384.77784      8885.5878      23.248792      20.134044      18.982559      11.624396      11.624396      6.7113481    
     23600   306.1041      -1439.9168      20.218768      1121.8791      8877.6984      23.241909      20.128084      18.976939      11.620955      11.620955      6.7093612    
     23700   303.30426     -1439.7307      20.033833      1448.7439      8876.449       23.240819      20.127139      18.976049      11.620409      11.620409      6.7090465    
     23800   298.16281     -1439.39        19.69423       1379.0644      8878.6103      23.242705      20.128773      18.977589      11.621352      11.621352      6.709591     
     23900   309.04094     -1440.1069      20.412752      675.31818      8881.9927      23.245656      20.131329      18.979998      11.622828      11.622828      6.7104429    
     24000   304.72625     -1439.8208      20.127758      540.98853      8883.9122      23.24733       20.132779      18.981365      11.623665      11.623665      6.7109262    
     24100   301.83586     -1439.6213      19.936842      1277.8209      8878.3874      23.24251       20.128604      18.97743       11.621255      11.621255      6.7095348    
     24200   307.87095     -1440.0175      20.335472      795.65826      8882.3565      23.245973      20.131603      18.980257      11.622987      11.622987      6.7105345    
     24300   300.90308     -1439.5557      19.875231      1022.4797      8880.9593      23.244754      20.130548      18.979262      11.622377      11.622377      6.7101826    
     24400   299.79659     -1439.477       19.802145      412.23361      8887.6983      23.250632      20.135638      18.984061      11.625316      11.625316      6.7118794    
     24500   298.33027     -1439.3814      19.705291     -894.29047      8898.9547      23.260444      20.144135      18.992073      11.630222      11.630222      6.7147118    
     24600   297.78514     -1439.3457      19.669285     -734.7678       8899.2181      23.260674      20.144334      18.99226       11.630337      11.630337      6.7147781    
     24700   313.24316     -1440.362       20.690316     -1506.4304      8901.3972      23.262572      20.145978      18.99381       11.631286      11.631286      6.7153261    
     24800   291.42861     -1438.9323      19.249423      1111.4346      8884.8714      23.248167      20.133503      18.982048      11.624084      11.624084      6.7111677    
     24900   298.09548     -1439.3656      19.689783      786.92281      8884.52        23.247861      20.133238      18.981798      11.62393       11.62393       6.7110793    
     25000   302.76975     -1439.6713      19.998527      1379.8299      8878.5861      23.242684      20.128755      18.977571      11.621342      11.621342      6.7095849    
     25100   313.68        -1440.3894      20.719171      45.7839        8885.9346      23.249094      20.134306      18.982806      11.624547      11.624547      6.7114354    
     25200   293.67815     -1439.07        19.39801       666.8555       8888.3977      23.251242      20.136167      18.984559      11.625621      11.625621      6.7120555    
     25300   292.91004     -1439.0183      19.347275     -451.85024      8895.7972      23.257693      20.141753      18.989826      11.628846      11.628846      6.7139175    
     25400   292.0265      -1438.9626      19.288915     -1172.731       8904.4529      23.265234      20.148283      18.995983      11.632617      11.632617      6.7160944    
     25500   294.55924     -1439.135       19.456208     -1741.6493      8906.8165      23.267292      20.150066      18.997664      11.633646      11.633646      6.7166886    
     25600   312.95049     -1440.3521      20.670985     -1104.2269      8895.6148      23.257534      20.141615      18.989696      11.628767      11.628767      6.7138717    
     25700   306.75484     -1439.9522      20.261751      1320.3968      8879.5112      23.243491      20.129454      18.97823       11.621745      11.621745      6.7098179    
     25800   297.06488     -1439.3146      19.62171       1356.7231      8878.7692      23.242844      20.128893      18.977702      11.621422      11.621422      6.709631     
     25900   311.43778     -1440.2518      20.571067      176.18655      8885.3494      23.248584      20.133864      18.982389      11.624292      11.624292      6.7112881    
     26000   306.53775     -1439.9326      20.247411      918.41115      8880.8666      23.244674      20.130478      18.979196      11.622337      11.622337      6.7101593    
     26100   292.81322     -1439.0273      19.34088       2314.1883      8871.1298      23.236176      20.123118      18.972257      11.618088      11.618088      6.7077061    
     26200   291.78804     -1438.9712      19.273164      1502.9876      8880.0971      23.244002      20.129896      18.978648      11.622001      11.622001      6.7099655    
     26300   303.40493     -1439.7366      20.040482     -1202.6118      8900.8502      23.262095      20.145566      18.993421      11.631048      11.631048      6.7151885    
     26400   306.04297     -1439.9061      20.21473      -1863.6157      8905.003       23.265713      20.148698      18.996374      11.632856      11.632856      6.7162327    
     26500   289.71008     -1438.8312      19.135911      559.25723      8889.2695      23.252002      20.136825      18.98518       11.626001      11.626001      6.7122749    
     26600   305.41178     -1439.8602      20.173039     -876.99991      8895.7996      23.257695      20.141754      18.989828      11.628847      11.628847      6.7139181    
     26700   286.37505     -1438.6045      18.915626      163.90984      8895.4422      23.257383      20.141485      18.989573      11.628692      11.628692      6.7138282    
     26800   301.57043     -1439.6043      19.91931      -1563.3179      8904.9537      23.26567       20.148661      18.996339      11.632835      11.632835      6.7162203    
     26900   309.79339     -1440.151       20.462453     -699.43785      8894.5283      23.256587      20.140795      18.988923      11.628293      11.628293      6.7135983    
     27000   293.86684     -1439.0959      19.410473      1006.0333      8884.9237      23.248213      20.133543      18.982086      11.624106      11.624106      6.7111809    
     27100   290.36779     -1438.8591      19.179354      512.57655      8890.4451      23.253027      20.137712      18.986017      11.626514      11.626514      6.7125708    
     27200   311.6682      -1440.2627      20.586287     -1993.9115      8906.0422      23.266618      20.149482      18.997113      11.633309      11.633309      6.716494     
     27300   294.91974     -1439.1626      19.480019     -923.04248      8900.9115      23.262149      20.145612      18.993465      11.631074      11.631074      6.7152039    
     27400   298.49334     -1439.4023      19.716063     -603.34318      8898.0795      23.259682      20.143475      18.99145       11.629841      11.629841      6.7144917    
     27500   306.34953     -1439.916       20.234979     -755.74075      8898.3412      23.25991       20.143673      18.991636      11.629955      11.629955      6.7145575    
     27600   305.62249     -1439.8789      20.186956     -702.59237      8896.2333      23.258073      20.142082      18.990136      11.629036      11.629036      6.7140273    
     27700   300.28844     -1439.5294      19.834632      883.24894      8883.1543      23.246669      20.132206      18.980826      11.623335      11.623335      6.7107354    
     27800   303.82131     -1439.7439      20.067985      1691.1153      8876.6091      23.240958      20.12726       18.976163      11.620479      11.620479      6.7090868    
     27900   310.03921     -1440.1547      20.478689      968.69709      8879.0319      23.243073      20.129091      18.977889      11.621536      11.621536      6.7096971    
     28000   299.71524     -1439.4723      19.796771      1553.9982      8879.0017      23.243046      20.129069      18.977867      11.621523      11.621523      6.7096896    
     28100   312.70479     -1440.3252      20.654756      481.86101      8882.0891      23.24574       20.131401      18.980067      11.62287       11.62287       6.7104672    
     28200   301.17233     -1439.5664      19.893015      1984.7419      8874.0066      23.238687      20.125293      18.974308      11.619343      11.619343      6.7084311    
     28300   306.57924     -1439.9204      20.250152      971.2842       8881.141       23.244913      20.130685      18.979391      11.622456      11.622456      6.7102284    
     28400   290.49548     -1438.8659      19.187788      1138.6661      8884.3525      23.247715      20.133111      18.981679      11.623857      11.623857      6.7110371    
     28500   306.594       -1439.9235      20.251126     -1023.726       8897.7684      23.25941       20.14324       18.991229      11.629705      11.629705      6.7144134    
     28600   296.47838     -1439.2558      19.582971     -527.52132      8897.1108      23.258837      20.142744      18.990761      11.629419      11.629419      6.714248     
     28700   302.23182     -1439.627       19.962996     -914.69578      8900.2088      23.261537      20.145082      18.992965      11.630768      11.630768      6.7150272    
     28800   293.72055     -1439.0689      19.40081      -352.5301       8896.9809      23.258724      20.142646      18.990668      11.629362      11.629362      6.7142153    
     28900   305.89922     -1439.8711      20.205235     -106.53861      8891.4048      23.253864      20.138437      18.9867        11.626932      11.626932      6.7128123    
     29000   308.90368     -1440.0688      20.403686      381.44795      8887.2633      23.250253      20.13531       18.983752      11.625127      11.625127      6.7117699    
     29100   310.3002      -1440.1644      20.495928     -767.55498      8893.6816      23.255849      20.140156      18.988321      11.627924      11.627924      6.7133853    
     29200   292.35948     -1438.9859      19.310909      1453.8845      8880.3027      23.244182      20.130052      18.978794      11.622091      11.622091      6.7100172    
     29300   312.20795     -1440.2886      20.621939     -244.10299      8889.6782      23.252359      20.137133      18.985471      11.626179      11.626179      6.7123778    
     29400   288.42073     -1438.7249      19.050747      452.21077      8891.0413      23.253547      20.138163      18.986441      11.626774      11.626774      6.7127209    
     29500   292.73091     -1439.0093      19.335443      159.55954      8891.304       23.253776      20.138361      18.986628      11.626888      11.626888      6.712787     
     29600   314.2456      -1440.4265      20.75653      -1107.0347      8895.5976      23.257519      20.141602      18.989684      11.628759      11.628759      6.7138673    
     29700   297.70342     -1439.3483      19.663887      106.19826      8890.1         23.252727      20.137452      18.985771      11.626363      11.626363      6.712484     
     29800   303.56924     -1439.7364      20.051335     -955.62198      8897.2464      23.258956      20.142846      18.990857      11.629478      11.629478      6.7142821    
     29900   297.31486     -1439.3221      19.638221      1247.0994      8880.992       23.244783      20.130573      18.979285      11.622391      11.622391      6.7101908    
     30000   310.2084      -1440.1718      20.489865     -73.922344      8887.6169      23.250561      20.135577      18.984003      11.625281      11.625281      6.7118589    
     30100   291.31638     -1438.9266      19.24201       1128.0257      8879.7877      23.243732      20.129663      18.978427      11.621866      11.621866      6.7098875    
     30200   298.11196     -1439.3745      19.690871      596.18579      8886.1957      23.249322      20.134504      18.982991      11.624661      11.624661      6.7115012    
     30300   301.15953     -1439.5744      19.892169      265.20123      8885.8994      23.249064      20.13428       18.982781      11.624532      11.624532      6.7114266    
     30400   296.0188      -1439.2428      19.552614     -717.42559      8897.1686      23.258888      20.142788      18.990802      11.629444      11.629444      6.7142625    
     30500   293.21148     -1439.0553      19.367185     -1490.8281      8907.4555      23.267848      20.150548      18.998118      11.633924      11.633924      6.7168492    
     30600   305.7933      -1439.8812      20.198239     -2122.0602      8908.7873      23.269008      20.151552      18.999065      11.634504      11.634504      6.717184     
     30700   293.46137     -1439.0754      19.383691     -1742.0327      8907.4098      23.267808      20.150513      18.998086      11.633904      11.633904      6.7168377    
     30800   288.26631     -1438.7399      19.040547     -1292.1114      8904.1829      23.264998      20.14808       18.995791      11.632499      11.632499      6.7160265    
     30900   287.29818     -1438.6703      18.9766        493.26         8890.5696      23.253136      20.137806      18.986106      11.626568      11.626568      6.7126021    
     31000   304.15167     -1439.7805      20.089806      52.237401      8886.3114      23.249423      20.134591      18.983074      11.624711      11.624711      6.7115303    
     31100   290.90321     -1438.8997      19.21472       1272.5778      8882.6326      23.246214      20.131812      18.980454      11.623107      11.623107      6.710604     
     31200   304.60274     -1439.801       20.1196        111.76695      8888.3806      23.251227      20.136154      18.984547      11.625614      11.625614      6.7120512    
     31300   301.19783     -1439.5748      19.894699      519.42801      8885.6838      23.248876      20.134117      18.982627      11.624438      11.624438      6.7113723    
     31400   302.4558      -1439.6625      19.97779      -170.45862      8890.4541      23.253035      20.137719      18.986023      11.626518      11.626518      6.7125731    
     31500   296.54841     -1439.2667      19.587596      554.63518      8886.0407      23.249187      20.134386      18.982881      11.624593      11.624593      6.7114622    
     31600   306.70673     -1439.941       20.258573     -326.52465      8890.7735      23.253314      20.13796       18.986251      11.626657      11.626657      6.7126535    
     31700   293.28005     -1439.0527      19.371714      338.31143      8890.1269      23.25275       20.137472      18.98579       11.626375      11.626375      6.7124907    
     31800   296.55228     -1439.2707      19.587851     -1010.7532      8897.6424      23.259301      20.143145      18.991139      11.62965       11.62965       6.7143817    
     31900   291.10239     -1438.91        19.227876     -47.296613      8891.2469      23.253726      20.138318      18.986588      11.626863      11.626863      6.7127726    
     32000   302.76709     -1439.6776      19.998352     -385.74643      8892.9194      23.255184      20.13958       18.987778      11.627592      11.627592      6.7131935    
     32100   298.1124      -1439.3707      19.690901     -501.9303       8892.3056      23.254649      20.139117      18.987341      11.627325      11.627325      6.713039     
     32200   301.38416     -1439.5846      19.907007     -705.92066      8894.6219      23.256668      20.140866      18.98899       11.628334      11.628334      6.7136219    
     32300   299.52801     -1439.4625      19.784404      258.2749       8886.4597      23.249552      20.134703      18.98318       11.624776      11.624776      6.7115676    
     32400   303.31421     -1439.7158      20.03449       507.75572      8883.5795      23.24704       20.132527      18.981128      11.62352       11.62352       6.7108425    
     32500   303.19917     -1439.7076      20.026892      20.137714      8885.7782      23.248958      20.134188      18.982694      11.624479      11.624479      6.7113961    
     32600   287.17411     -1438.6484      18.968406      1697.0373      8879.2338      23.243249      20.129244      18.978033      11.621624      11.621624      6.709748     
     32700   306.34919     -1439.9142      20.234956      749.69138      8881.593       23.245307      20.131027      18.979714      11.622654      11.622654      6.7103422    
     32800   321.38579     -1440.9076      21.228153      243.91486      8881.5236      23.245247      20.130974      18.979664      11.622623      11.622623      6.7103247    
     32900   302.12224     -1439.6368      19.955758      2513.2115      8869.8326      23.235043      20.122137      18.971333      11.617521      11.617521      6.7073791    
     33000   317.90708     -1440.6781      20.998377      1265.1083      8873.2952      23.238066      20.124755      18.973801      11.619033      11.619033      6.7082518    
     33100   299.71864     -1439.4892      19.796996      2186.1937      8871.7996      23.23676       20.123625      18.972735      11.61838       11.61838       6.7078749    
     33200   297.99742     -1439.3742      19.683306      682.43598      8885.2369      23.248486      20.133779      18.982309      11.624243      11.624243      6.7112598    
     33300   310.84426     -1440.2208      20.531865     -812.47537      8895.0438      23.257036      20.141184      18.98929       11.628518      11.628518      6.713728     
     33400   301.66146     -1439.6105      19.925323     -1008.4901      8899.2168      23.260672      20.144333      18.992259      11.630336      11.630336      6.7147777    
     33500   290.47489     -1438.8731      19.186428     -831.59234      8904.4649      23.265244      20.148292      18.995992      11.632622      11.632622      6.7160974    
     33600   311.15782     -1440.2469      20.552576     -1924.5084      8904.9622      23.265677      20.148667      18.996345      11.632839      11.632839      6.7162224    
     33700   302.86064     -1439.6975      20.004531      701.33354      8885.7269      23.248913      20.134149      18.982658      11.624457      11.624457      6.7113832    
     33800   303.87937     -1439.7732      20.07182       172.24709      8886.8839      23.249922      20.135023      18.983482      11.624961      11.624961      6.7116744    
     33900   288.89368     -1438.7821      19.081987      1236.0494      8883.9019      23.247321      20.132771      18.981358      11.623661      11.623661      6.7109236    
     34000   318.94238     -1440.7567      21.066761     -1858.9384      8903.7504      23.264622      20.147753      18.995484      11.632311      11.632311      6.7159178    
     34100   310.15039     -1440.1849      20.486033     -1242.9909      8898.6644      23.260191      20.143916      18.991866      11.630096      11.630096      6.7146388    
     34200   306.03168     -1439.9192      20.213984      360.64603      8886.0231      23.249172      20.134373      18.982869      11.624586      11.624586      6.7114577    
     34300   292.67294     -1439.0348      19.331614      2883.3407      8868.49        23.23387       20.121122      18.970375      11.616935      11.616935      6.7070407    
     34400   321.15676     -1440.9042      21.213025      860.78271      8877.593       23.241817      20.128004      18.976864      11.620909      11.620909      6.7093347    
     34500   306.71267     -1439.9496      20.258965      1691.4611      8875.3028      23.239818      20.126273      18.975232      11.619909      11.619909      6.7087577    
     34600   301.611       -1439.6066      19.92199       1920.6776      8873.0018      23.23781       20.124534      18.973592      11.618905      11.618905      6.7081779    
     34700   300.0162      -1439.5105      19.81665       1030.3014      8881.1632      23.244932      20.130702      18.979407      11.622466      11.622466      6.710234     
     34800   293.21683     -1439.0621      19.367539      452.00708      8889.7014      23.252379      20.137151      18.985488      11.626189      11.626189      6.7123836    
     34900   302.45189     -1439.6632      19.977532     -2331.9148      8910.6528      23.270632      20.152958      19.000391      11.635316      11.635316      6.7176528    
     35000   305.4742      -1439.8622      20.177162     -1995.7084      8908.4809      23.268741      20.151321      18.998847      11.634371      11.634371      6.717107     
     35100   302.88227     -1439.6915      20.00596      -707.02918      8898.0043      23.259616      20.143418      18.991396      11.629808      11.629808      6.7144728    
     35200   307.36307     -1440.0028      20.301925      40.295498      8888.7997      23.251593      20.13647       18.984846      11.625796      11.625796      6.7121567    
     35300   297.5386      -1439.3442      19.653         1272.9473      8880.8226      23.244635      20.130445      18.979165      11.622318      11.622318      6.7101482    
     35400   302.10534     -1439.6337      19.954642      1374.8638      8877.8473      23.242039      20.128196      18.977045      11.62102       11.62102       6.7093988    
     35500   301.85702     -1439.6122      19.93824       1618.9429      8876.5489      23.240906      20.127215      18.97612       11.620453      11.620453      6.7090716    
     35600   301.51802     -1439.5906      19.915848      216.97057      8888.7786      23.251574      20.136454      18.984831      11.625787      11.625787      6.7121514    
     35700   295.38161     -1439.1904      19.510527      80.25777       8893.0537      23.255301      20.139682      18.987874      11.627651      11.627651      6.7132273    
     35800   290.74394     -1438.8761      19.204199     -428.36651      8898.2168      23.259801      20.143579      18.991548      11.629901      11.629901      6.7145262    
     35900   308.78234     -1440.0652      20.395671     -2220.9133      8909.3272      23.269478      20.151959      18.999449      11.634739      11.634739      6.7173197    
     36000   274.93014     -1437.8333      18.159667      595.24552      8894.8483      23.256866      20.141037      18.989151      11.628433      11.628433      6.7136788    
     36100   299.11694     -1439.4287      19.757252     -955.65465      8902.1956      23.263267      20.146581      18.994378      11.631634      11.631634      6.7155268    
     36200   307.92109     -1440.0058      20.338783     -1355.3466      8902.3163      23.263373      20.146672      18.994464      11.631686      11.631686      6.7155572    
     36300   297.20865     -1439.302       19.631206     -887.51685      8902.1153      23.263197      20.14652       18.994321      11.631599      11.631599      6.7155067    
     36400   289.1186      -1438.7651      19.096843      579.29179      8891.0245      23.253533      20.13815       18.986429      11.626766      11.626766      6.7127166    
     36500   304.05219     -1439.7506      20.083235     -557.13005      8895.0102      23.257007      20.141159      18.989266      11.628503      11.628503      6.7137195    
     36600   307.90264     -1440.0024      20.337565     -123.24385      8892.1187      23.254486      20.138976      18.987208      11.627243      11.627243      6.712992     
     36700   308.66905     -1440.0578      20.388188      38.367181      8890.5356      23.253106      20.137781      18.986081      11.626553      11.626553      6.7125936    
     36800   312.91414     -1440.3373      20.668584      818.47369      8880.0728      23.243981      20.129878      18.978631      11.62199       11.62199       6.7099593    
     36900   301.98227     -1439.6147      19.946513      2386.012       8871.5986      23.236585      20.123473      18.972592      11.618292      11.618292      6.7078242    
     37000   296.76956     -1439.2777      19.602204      928.92173      8884.4506      23.2478        20.133185      18.981749      11.6239        11.6239        6.7110618    
     37100   297.26744     -1439.3162      19.635089     -190.22541      8895.6641      23.257577      20.141652      18.989731      11.628788      11.628788      6.7138841    
     37200   285.88463     -1438.5597      18.883233     -371.87967      8898.3655      23.259931      20.143691      18.991653      11.629965      11.629965      6.7145636    
     37300   298.83628     -1439.4141      19.738714     -1485.5797      8905.5702      23.266207      20.149126      18.996778      11.633103      11.633103      6.7163753    
     37400   303.14355     -1439.6993      20.023218     -1801.1631      8907.7757      23.268127      20.150789      18.998346      11.634064      11.634064      6.7169297    
     37500   298.60931     -1439.4059      19.723722     -81.425729      8893.3528      23.255562      20.139908      18.988087      11.627781      11.627781      6.7133025    
     37600   309.98519     -1440.1517      20.475121      151.41074      8886.1971      23.249323      20.134505      18.982992      11.624662      11.624662      6.7115015    
     37700   294.59466     -1439.1359      19.458547      1305.5264      8882.5436      23.246137      20.131745      18.980391      11.623068      11.623068      6.7105816    
     37800   308.45624     -1440.057       20.374131      372.42716      8884.4475      23.247797      20.133183      18.981747      11.623899      11.623899      6.711061     
     37900   309.98292     -1440.1561      20.474971      776.21698      8879.9961      23.243914      20.12982       18.978576      11.621957      11.621957      6.70994      
     38000   300.66396     -1439.5423      19.859436      1278.5138      8878.9369      23.24299       20.12902       18.977821      11.621495      11.621495      6.7096732    
     38100   307.04834     -1439.9644      20.281137      455.97644      8883.6191      23.247075      20.132557      18.981157      11.623537      11.623537      6.7108524    
     38200   303.77145     -1439.7516      20.064692      566.78354      8884.9197      23.248209      20.13354       18.982083      11.624105      11.624105      6.7111799    
     38300   299.30121     -1439.4544      19.769423      842.80038      8883.6562      23.247107      20.132585      18.981183      11.623554      11.623554      6.7108618    
     38400   298.19623     -1439.3873      19.696438     -693.86465      8898.1274      23.259723      20.143511      18.991484      11.629862      11.629862      6.7145037    
     38500   298.04041     -1439.3718      19.686146     -1298.5821      8906.0389      23.266615      20.149479      18.997111      11.633307      11.633307      6.7164931    
     38600   295.01704     -1439.173       19.486446     -886.83598      8899.9749      23.261333      20.144905      18.992798      11.630666      11.630666      6.7149684    
     38700   293.606       -1439.0787      19.393244     -830.09283      8900.1315      23.261469      20.145023      18.99291       11.630735      11.630735      6.7150078    
     38800   289.04511     -1438.7757      19.091989     -409.6679       8898.5054      23.260053      20.143796      18.991753      11.630026      11.630026      6.7145988    
     38900   298.17997     -1439.3758      19.695364     -224.33238      8894.4966      23.256559      20.140771      18.988901      11.62828       11.62828       6.7135903    
     39000   299.20649     -1439.4449      19.763167      282.94843      8889.7202      23.252395      20.137165      18.985501      11.626198      11.626198      6.7123884    
     39100   294.15662     -1439.1079      19.429614      1357.5278      8880.9841      23.244776      20.130567      18.97928       11.622388      11.622388      6.7101889    
     39200   294.4874      -1439.1345      19.451463      1112.8546      8880.8555      23.244664      20.130469      18.979188      11.622332      11.622332      6.7101565    
     39300   296.41537     -1439.2708      19.578809      173.67598      8890.8515      23.253382      20.138019      18.986306      11.626691      11.626691      6.7126731    
     39400   305.39099     -1439.8512      20.171666     -1165.1824      8900.5602      23.261843      20.145347      18.993215      11.630921      11.630921      6.7151156    
     39500   304.40396     -1439.7845      20.10647      -1452.6419      8902.5995      23.263619      20.146885      18.994665      11.63181       11.63181       6.7156284    
     39600   308.15637     -1440.0423      20.354324     -1077.3714      8898.7884      23.260299      20.14401       18.991954      11.63015       11.63015       6.71467      
     39700   304.47587     -1439.8004      20.11122       195.52742      8886.8393      23.249883      20.13499       18.98345       11.624942      11.624942      6.7116632    
     39800   301.79113     -1439.6191      19.933888      1958.3999      8872.9912      23.237801      20.124526      18.973584      11.6189        11.6189        6.7081752    
     39900   299.77531     -1439.4836      19.800739      1418.7112      8876.1901      23.240593      20.126944      18.975864      11.620296      11.620296      6.7089813    
     40000   306.63882     -1439.932       20.254087     -88.136586      8889.4205      23.252134      20.136939      18.985288      11.626067      11.626067      6.712313     
     40100   301.32502     -1439.5805      19.9031       -930.80774      8897.724       23.259372      20.143207      18.991197      11.629686      11.629686      6.7144022    
     40200   298.7852      -1439.4143      19.735341     -242.00712      8892.4719      23.254794      20.139243      18.98746       11.627397      11.627397      6.7130809    
     40300   302.56276     -1439.6622      19.984855      847.55762      8882.627       23.246209      20.131808      18.98045       11.623105      11.623105      6.7106026    
     40400   312.17492     -1440.2935      20.619757      1347.5422      8875.5974      23.240075      20.126496      18.975442      11.620038      11.620038      6.7088319    
     40500   303.36059     -1439.7118      20.037554      2608.8766      8864.6521      23.230518      20.118219      18.967638      11.615259      11.615259      6.706073     
     40600   310.20521     -1440.1722      20.489654      1948.1474      8869.6628      23.234895      20.122009      18.971211      11.617447      11.617447      6.7073363    
     40700   304.06404     -1439.7637      20.084018      909.63367      8882.1646      23.245806      20.131459      18.980121      11.622903      11.622903      6.7104862    
     40800   298.86376     -1439.4203      19.740529      12.361519      8890.953       23.25347       20.138096      18.986379      11.626735      11.626735      6.7126987    
     40900   289.80007     -1438.8271      19.141855     -183.24604      8895.8241      23.257716      20.141773      18.989845      11.628858      11.628858      6.7139243    
     41000   315.3223      -1440.4994      20.827648     -2711.1813      8911.124       23.271042      20.153314      19.000726      11.635521      11.635521      6.7177712    
     41100   299.94389     -1439.4899      19.811874     -979.92723      8901.853       23.262969      20.146322      18.994134      11.631484      11.631484      6.7154407    
     41200   290.7923      -1438.8841      19.207394     -87.464986      8896.6995      23.258479      20.142434      18.990468      11.629239      11.629239      6.7141445    
     41300   311.84878     -1440.2673      20.598215     -1073.4252      8897.3183      23.259018      20.142901      18.990908      11.629509      11.629509      6.7143002    
     41400   290.18366     -1438.8511      19.167192      429.87556      8887.8076      23.250728      20.135721      18.984139      11.625364      11.625364      6.711907     
     41500   288.01645     -1438.6983      19.024044      1123.8259      8884.5264      23.247866      20.133243      18.981803      11.623933      11.623933      6.7110809    
     41600   300.97069     -1439.5556      19.879696      444.9217       8887.3636      23.250341      20.135386      18.983823      11.62517       11.62517       6.7117952    
     41700   296.95365     -1439.2992      19.614363     -292.92367      8894.9464      23.256951      20.141111      18.989221      11.628476      11.628476      6.7137035    
     41800   313.62189     -1440.388       20.715332     -2097.7463      8906.7816      23.267261      20.15004       18.997639      11.633631      11.633631      6.7166798    
     41900   312.14438     -1440.2976      20.61774      -1605.8348      8901.7316      23.262863      20.146231      18.994048      11.631432      11.631432      6.7154102    
     42000   306.11903     -1439.9176      20.219754      772.93332      8882.9247      23.246469      20.132033      18.980662      11.623235      11.623235      6.7106776    
     42100   305.13487     -1439.8396      20.154749      1930.9881      8871.3558      23.236373      20.123289      18.972418      11.618186      11.618186      6.707763     
     42200   298.43284     -1439.4013      19.712066      2587.3801      8867.9874      23.233431      20.120742      18.970017      11.616716      11.616716      6.706914     
     42300   306.10365     -1439.9141      20.218738      1290.3689      8876.5455      23.240903      20.127212      18.976117      11.620451      11.620451      6.7090708    
     42400   295.25197     -1439.2087      19.501964      1681.1793      8877.0917      23.24138       20.127625      18.976507      11.62069       11.62069       6.7092084    
     42500   302.22918     -1439.6693      19.962822     -832.73596      8897.6171      23.259279      20.143126      18.991121      11.629639      11.629639      6.7143754    
     42600   304.45307     -1439.8018      20.109714     -1745.0098      8907.0019      23.267453      20.150206      18.997796      11.633727      11.633727      6.7167352    
     42700   301.37112     -1439.5979      19.906145     -1186.4316      8902.1554      23.263232      20.14655       18.994349      11.631616      11.631616      6.7155167    
     42800   308.08198     -1440.0385      20.349411     -331.67544      8892.071       23.254445      20.13894       18.987174      11.627222      11.627222      6.71298      
     42900   297.38478     -1439.3284      19.64284       907.06716      8883.6728      23.247122      20.132598      18.981195      11.623561      11.623561      6.710866     
     43000   302.43957     -1439.6596      19.976719     -500.8397       8895.68        23.257591      20.141664      18.989743      11.628795      11.628795      6.7138881    
[...]
   1989700   300.88526     -1439.5459      19.874053      641.74967      8885.4594      23.24868       20.133947      18.982467      11.62434       11.62434       6.7113158    
   1989800   297.66412     -1439.3376      19.661291      957.44088      8882.802       23.246362      20.13194       18.980575      11.623181      11.623181      6.7106467    
   1989900   297.80277     -1439.3502      19.670449      26.033237      8888.5512      23.251376      20.136282      18.984669      11.625688      11.625688      6.7120941    
   1990000   286.37685     -1438.5969      18.915745      1458.0502      8882.1645      23.245806      20.131458      18.980121      11.622903      11.622903      6.7104861    
   1990100   294.29936     -1439.1264      19.439042      615.37957      8887.7457      23.250674      20.135674      18.984095      11.625337      11.625337      6.7118914    
   1990200   295.0681      -1439.1856      19.489819     -277.39928      8896.9757      23.25872       20.142642      18.990665      11.62936       11.62936       6.714214     
   1990300   299.01503     -1439.4456      19.750521     -1938.1187      8909.3619      23.269508      20.151985      18.999473      11.634754      11.634754      6.7173284    
   1990400   293.94615     -1439.1048      19.415712     -1445.9871      8906.281       23.266826      20.149662      18.997283      11.633413      11.633413      6.716554     
   1990500   288.08531     -1438.7211      19.028592     -971.43918      8904.484       23.265261      20.148307      18.996005      11.63263       11.63263       6.7161022    
   1990600   296.52356     -1439.271       19.585955     -1087.9707      8902.3584      23.263409      20.146703      18.994494      11.631705      11.631705      6.7155678    
   1990700   303.69606     -1439.7454      20.059712     -1563.5561      8904.8252      23.265558      20.148564      18.996248      11.632779      11.632779      6.716188     
   1990800   292.67368     -1439.015       19.331663      367.2654       8891.6365      23.254066      20.138612      18.986865      11.627033      11.627033      6.7128707    
   1990900   297.81044     -1439.35        19.670956      545.67889      8886.5155      23.249601      20.134745      18.983219      11.6248        11.6248        6.7115817    
   1991000   300.58386     -1439.5356      19.854145     -1021.9445      8900.6455      23.261917      20.145411      18.993275      11.630959      11.630959      6.715137     
   1991100   284.56554     -1438.4732      18.796104     -942.40919      8906.8724      23.267341      20.150108      18.997704      11.63367       11.63367       6.7167027    
   1991200   292.17598     -1438.9735      19.298789     -1250.6353      8905.4715      23.266121      20.149052      18.996708      11.63306       11.63306       6.7163505    
   1991300   300.74631     -1439.5379      19.864875     -956.88637      8899.4247      23.260854      20.14449       18.992407      11.630427      11.630427      6.71483      
   1991400   300.0317      -1439.4909      19.817674     -548.57117      8895.8871      23.257771      20.141821      18.98989       11.628886      11.628886      6.7139402    
   1991500   291.27254     -1438.9107      19.239115      971.208        8886.6692      23.249735      20.134861      18.983329      11.624867      11.624867      6.7116204    
   1991600   309.42741     -1440.1029      20.438279      818.33215      8879.7127      23.243667      20.129606      18.978374      11.621833      11.621833      6.7098686    
   1991700   296.45437     -1439.2479      19.581385      2035.9468      8875.5345      23.240021      20.126448      18.975397      11.62001       11.62001       6.7088161    
   1991800   298.6965      -1439.401       19.729481      443.3959       8886.8986      23.249935      20.135034      18.983492      11.624968      11.624968      6.7116781    
   1991900   298.27099     -1439.3752      19.701376      288.50635      8891.5507      23.253991      20.138547      18.986804      11.626996      11.626996      6.7128491    
   1992000   305.57825     -1439.855       20.184035     -449.92847      8897.1038      23.258831      20.142739      18.990756      11.629416      11.629416      6.7142462    
   1992100   297.50057     -1439.3164      19.650488     -669.09142      8900.1704      23.261503      20.145053      18.992937      11.630752      11.630752      6.7150176    
   1992200   302.27117     -1439.6362      19.965595     -1561.7779      8905.6325      23.266261      20.149173      18.996822      11.63313       11.63313       6.716391     
   1992300   291.38702     -1438.9124      19.246676     -169.97257      8897.0571      23.258791      20.142704      18.990723      11.629395      11.629395      6.7142345    
   1992400   300.3065      -1439.4984      19.835825     -1052.7447      8900.2267      23.261552      20.145095      18.992977      11.630776      11.630776      6.7150317    
   1992500   292.54146     -1438.9838      19.322929      231.45499      8892.6222      23.254925      20.139356      18.987567      11.627463      11.627463      6.7131187    
   1992600   303.84244     -1439.7388      20.069381     -610.58832      8896.1723      23.25802       20.142036      18.990093      11.62901       11.62901       6.7140119    
   1992700   303.01258     -1439.6823      20.014567     -430.83882      8893.0944      23.255337      20.139713      18.987903      11.627668      11.627668      6.7132375    
   1992800   298.77379     -1439.4091      19.734587      1869.2725      8875.7629      23.24022       20.126621      18.97556       11.62011       11.62011       6.7088736    
   1992900   319.27895     -1440.7634      21.088992      1013.6837      8875.5943      23.240073      20.126493      18.975439      11.620036      11.620036      6.7088311    
   1993000   308.47566     -1440.0565      20.375414      2443.0171      8866.6371      23.232252      20.119721      18.969054      11.616126      11.616126      6.7065735    
   1993100   306.285       -1439.9135      20.230716      2532.4943      8868.5565      23.233929      20.121172      18.970423      11.616964      11.616964      6.7070574    
   1993200   303.62927     -1439.7472      20.055301      1255.8975      8879.4692      23.243454      20.129422      18.9782        11.621727      11.621727      6.7098073    
   1993300   302.67839     -1439.6789      19.992493      1344.6818      8876.5219      23.240882      20.127195      18.976101      11.620441      11.620441      6.7090648    
   1993400   302.61598     -1439.687       19.988371      734.99297      8884.0614      23.247461      20.132891      18.981472      11.62373       11.62373       6.7109638    
   1993500   304.16024     -1439.7865      20.090372     -469.85388      8894.038       23.256159      20.140425      18.988574      11.62808       11.62808       6.7134749    
   1993600   289.88599     -1438.8404      19.14753       42.882447      8893.4571      23.255653      20.139986      18.988161      11.627827      11.627827      6.7133288    
   1993700   305.78306     -1439.8834      20.197562     -1531.0783      8902.2941      23.263353      20.146655      18.994448      11.631677      11.631677      6.7155516    
   1993800   286.88848     -1438.6367      18.949539      430.7337       8891.7267      23.254145      20.13868       18.986929      11.627072      11.627072      6.7128934    
   1993900   307.46975     -1439.9953      20.308971     -1005.9585      8895.0358      23.257029      20.141178      18.989284      11.628515      11.628515      6.713726     
   1994000   295.88388     -1439.2323      19.543702      802.46385      8884.3211      23.247687      20.133088      18.981657      11.623844      11.623844      6.7110292    
   1994100   297.77659     -1439.3545      19.66872       239.63004      8889.5151      23.252217      20.13701       18.985355      11.626108      11.626108      6.7123368    
   1994200   290.68728     -1438.8858      19.200457     -435.39031      8897.839       23.259472      20.143294      18.991279      11.629736      11.629736      6.7144312    
   1994300   299.42569     -1439.462       19.777646     -1864.7528      8907.9556      23.268284      20.150925      18.998474      11.634142      11.634142      6.7169749    
   1994400   304.46368     -1439.8044      20.110415     -2267.567       8911.0029      23.270937      20.153222      19.00064       11.635468      11.635468      6.7177408    
   1994500   290.53606     -1438.8989      19.190469     -933.39569      8901.4329      23.262603      20.146005      18.993835      11.631302      11.631302      6.7153351    
   1994600   295.05728     -1439.1899      19.489104      352.35832      8888.0578      23.250946      20.13591       18.984317      11.625473      11.625473      6.7119699    
   1994700   302.74242     -1439.6898      19.996722      408.99962      8884.3469      23.24771       20.133107      18.981675      11.623855      11.623855      6.7110357    
   1994800   297.15071     -1439.3181      19.627379      380.68697      8887.3863      23.25036       20.135403      18.983839      11.62518       11.62518       6.7118009    
   1994900   300.65946     -1439.5481      19.859139      163.34944      8889.9129      23.252563      20.137311      18.985638      11.626282      11.626282      6.7124369    
   1995000   306.50656     -1439.9295      20.245351     -111.07597      8891.0249      23.253533      20.13815       18.98643       11.626766      11.626766      6.7127167    
   1995100   301.37783     -1439.5936      19.906589     -209.05497      8891.9035      23.254299      20.138814      18.987055      11.627149      11.627149      6.7129379    
   1995200   282.58828     -1438.3513      18.665503      1130.8109      8884.7056      23.248022      20.133378      18.98193       11.624011      11.624011      6.711126     
   1995300   298.56736     -1439.4097      19.720952     -133.70335      8894.6961      23.256733      20.140922      18.989043      11.628367      11.628367      6.7136405    
   1995400   309.51626     -1440.1325      20.444148     -2445.2769      8909.3144      23.269467      20.151949      18.99944       11.634733      11.634733      6.7173164    
   1995500   304.85747     -1439.8241      20.136426     -1927.4713      8907.6418      23.268011      20.150688      18.998251      11.634005      11.634005      6.7168961    
   1995600   289.16009     -1438.8061      19.099583      64.610817      8894.3092      23.256396      20.14063       18.988767      11.628198      11.628198      6.7135432    
   1995700   302.36359     -1439.6674      19.9717       -850.83171      8895.6459      23.257561      20.141639      18.989718      11.62878       11.62878       6.7138795    
   1995800   298.49117     -1439.4093      19.715919     -543.5245       8896.3659      23.258188      20.142182      18.990231      11.629094      11.629094      6.7140606    
   1995900   290.35082     -1438.8747      19.178233     -263.28536      8892.9994      23.255254      20.139641      18.987835      11.627627      11.627627      6.7132136    
   1996000   295.36826     -1439.205       19.509645      79.285574      8890.5615      23.253129      20.1378        18.9861        11.626564      11.626564      6.7126001    
   1996100   299.94655     -1439.5058      19.81205       134.72532      8889.8547      23.252513      20.137267      18.985597      11.626256      11.626256      6.7124222    
   1996200   308.73606     -1440.082       20.392614     -143.61045      8890.3062      23.252906      20.137608      18.985918      11.626453      11.626453      6.7125359    
   1996300   300.76282     -1439.5637      19.865966     -221.01597      8891.5931      23.254028      20.138579      18.986834      11.627014      11.627014      6.7128597    
   1996400   307.56189     -1440.0074      20.315057     -886.68045      8895.5202      23.257451      20.141544      18.989629      11.628726      11.628726      6.7138479    
   1996500   296.21174     -1439.2713      19.565359     -441.01658      8894.8533      23.25687       20.14104       18.989154      11.628435      11.628435      6.7136801    
   1996600   303.98521     -1439.7764      20.078811     -365.09228      8890.8868      23.253413      20.138046      18.986331      11.626706      11.626706      6.712682     
   1996700   308.93245     -1440.1236      20.405586     -459.11421      8891.9029      23.254298      20.138813      18.987055      11.627149      11.627149      6.7129377    
   1996800   305.69246     -1439.9143      20.191578      846.22264      8881.4375      23.245172      20.130909      18.979603      11.622586      11.622586      6.710303     
   1996900   303.16719     -1439.7389      20.024779      1444.9052      8877.7519      23.241956      20.128124      18.976977      11.620978      11.620978      6.7093747    
   1997000   300.66034     -1439.5719      19.859197      1384.335       8877.2107      23.241484      20.127715      18.976591      11.620742      11.620742      6.7092384    
   1997100   294.99371     -1439.1991      19.484905      408.52489      8887.6473      23.250588      20.1356        18.984025      11.625294      11.625294      6.7118666    
   1997200   283.61233     -1438.4415      18.733143      1150.4984      8884.9685      23.248252      20.133577      18.982118      11.624126      11.624126      6.7111922    
   1997300   300.50081     -1439.5559      19.84866      -861.0675       8895.8972      23.25778       20.141828      18.989897      11.62889       11.62889       6.7139427    
   1997400   294.10118     -1439.133       19.425952      372.7739       8889.0964      23.251852      20.136694      18.985057      11.625926      11.625926      6.7122314    
   1997500   290.85114     -1438.9154      19.21128       225.13732      8894.5415      23.256598      20.140805      18.988933      11.628299      11.628299      6.7136016    
   1997600   320.27527     -1440.8555      21.154801     -1805.8639      8900.7737      23.262029      20.145508      18.993367      11.631014      11.631014      6.7151693    
   1997700   300.95992     -1439.5718      19.878985      825.41039      8884.5154      23.247857      20.133234      18.981795      11.623928      11.623928      6.7110781    
   1997800   305.19399     -1439.8493      20.158653      716.33761      8884.156       23.247543      20.132963      18.981539      11.623772      11.623772      6.7109876    
   1997900   300.376       -1439.5297      19.840416      1258.4325      8879.7623      23.24371       20.129643      18.978409      11.621855      11.621855      6.7098811    
   1998000   300.97399     -1439.5676      19.879914      679.13987      8884.4161      23.24777       20.133159      18.981724      11.623885      11.623885      6.7110531    
   1998100   291.1444      -1438.9165      19.23065      -417.51473      8897.1871      23.258904      20.142802      18.990815      11.629452      11.629452      6.7142672    
   1998200   307.15085     -1439.9659      20.287908     -1621.5636      8903.6691      23.264551      20.147692      18.995426      11.632275      11.632275      6.7158974    
   1998300   301.20696     -1439.5819      19.895302     -1028.2489      8900.2686      23.261589      20.145127      18.993007      11.630794      11.630794      6.7150423    
   1998400   303.03992     -1439.7096      20.016373      23.16419       8891.9169      23.254311      20.138824      18.987065      11.627155      11.627155      6.7129412    
   1998500   302.95466     -1439.7057      20.010741      25.71391       8888.0419      23.250932      20.135898      18.984306      11.625466      11.625466      6.7119659    
   1998600   303.80637     -1439.7716      20.066998      1743.4407      8874.2218      23.238875      20.125456      18.974461      11.619437      11.619437      6.7084853    
   1998700   304.11087     -1439.7857      20.087111      2122.7128      8870.2838      23.235437      20.122479      18.971654      11.617718      11.617718      6.7074928    
   1998800   304.73793     -1439.8281      20.12853       1561.8839      8874.4249      23.239052      20.125609      18.974606      11.619526      11.619526      6.7085365    
   1998900   297.46909     -1439.3488      19.648409      1733.2197      8875.2215      23.239747      20.126212      18.975174      11.619874      11.619874      6.7087372    
   1999000   304.18392     -1439.7904      20.091936      1797.5148      8871.8895      23.236839      20.123693      18.972799      11.618419      11.618419      6.7078975    
   1999100   302.70054     -1439.7092      19.993956      1641.4983      8874.4734      23.239094      20.125646      18.974641      11.619547      11.619547      6.7085487    
   1999200   290.53186     -1438.9083      19.190192      1377.6883      8883.2094      23.246717      20.132248      18.980865      11.623359      11.623359      6.7107493    
   1999300   302.85779     -1439.7306      20.004343     -2143.2878      8908.8324      23.269047      20.151586      18.999097      11.634524      11.634524      6.7171953    
   1999400   295.86753     -1439.2612      19.542622     -2362.0916      8914.2035      23.273722      20.155635      19.002914      11.636861      11.636861      6.718545     
   1999500   286.59161     -1438.6501      18.92993      -1667.2407      8909.9274      23.27          20.152412      18.999875      11.635         11.635         6.7174705    
   1999600   289.03446     -1438.8108      19.091285     -1677.1542      8909.1311      23.269307      20.151811      18.999309      11.634654      11.634654      6.7172704    
   1999700   291.90847     -1438.9991      19.281119     -1583.8093      8907.7429      23.268099      20.150764      18.998322      11.634049      11.634049      6.7169215    
   1999800   303.53038     -1439.7655      20.048768     -2486.2723      8912.059       23.271856      20.154018      19.00139       11.635928      11.635928      6.7180061    
   1999900   282.86457     -1438.3971      18.683752      678.65309      8892.7285      23.255018      20.139436      18.987642      11.627509      11.627509      6.7131455    
   2000000   298.65883     -1439.4385      19.726993     -752.77801      8899.1972      23.260655      20.144318      18.992245      11.630328      11.630328      6.7147728    
Loop time of 9694.42 on 4 procs for 2000000 steps with 512 atoms

Performance: 35.649 ns/day, 0.673 hours/ns, 206.304 timesteps/s, 105.628 katom-step/s
98.9% CPU use with 1 MPI tasks x 4 OpenMP threads

MPI task timing breakdown:
Section |  min time  |  avg time  |  max time  |%varavg| %total
---------------------------------------------------------------
Pair    | 9427       | 9427       | 9427       |   0.0 | 97.24
Neigh   | 0.000406   | 0.000406   | 0.000406   |   0.0 |  0.00
Comm    | 11.287     | 11.287     | 11.287     |   0.0 |  0.12
Output  | 0.39831    | 0.39831    | 0.39831    |   0.0 |  0.00
Modify  | 250.32     | 250.32     | 250.32     |   0.0 |  2.58
Other   |            | 5.428      |            |       |  0.06

Nlocal:            512 ave         512 max         512 min
Histogram: 1 0 0 0 0 0 0 0 0 0
Nghost:           1761 ave        1761 max        1761 min
Histogram: 1 0 0 0 0 0 0 0 0 0
Neighs:          20310 ave       20310 max       20310 min
Histogram: 1 0 0 0 0 0 0 0 0 0
FullNghs:        40620 ave       40620 max       40620 min
Histogram: 1 0 0 0 0 0 0 0 0 0

Total # of neighbors = 40620
Ave neighs/atom = 79.335938
Neighbor list builds = 1
Dangerous builds = 0
write_restart Restart.final
System init for write_restart ...
No /omp style for force computation currently active
Total wall time: 2:41:34
