ITEM: TIMESTEP
0
ITEM: NUMBER OF ATOMS
512
ITEM: BOX BOUNDS xy xz yz pp pp pp
0.0000000000000000e+00 4.0899056209999998e+01 1.0224764049999999e+01
0.0000000000000000e+00 2.3613081120000000e+01 1.0224764049999999e+01
0.0000000000000000e+00 1.6696969780000000e+01 5.9032702800000001e+00
ITEM: ATOMS id type xs ys zs
1 1 0 0 0
2 1 0.125 0 0
3 1 0.25 0 0
4 1 0.375 0 0
5 1 0.5 0 0
6 1 0.625 0 0
7 1 0.75 0 0
8 1 0.875 0 0
9 1 4.22136e-11 0.125 0
10 1 0.125 0.125 0
11 1 0.25 0.125 0
12 1 0.375 0.125 0
13 1 0.5 0.125 0
14 1 0.625 0.125 0
15 1 0.75 0.125 0
16 1 0.875 0.125 0
17 1 1 0.25 0
18 1 0.125 0.25 0
19 1 0.25 0.25 0
20 1 0.375 0.25 0
21 1 0.5 0.25 0
22 1 0.625 0.25 0
23 1 0.75 0.25 0
24 1 0.875 0.25 0
25 1 1 0.375 0
26 1 0.125 0.375 0
27 1 0.25 0.375 0
28 1 0.375 0.375 0
29 1 0.5 0.375 0
30 1 0.625 0.375 0
31 1 0.75 0.375 0
32 1 0.875 0.375 0
33 1 2.44504e-10 0.5 0
34 1 0.125 0.5 0
35 1 0.25 0.5 0
36 1 0.375 0.5 0
37 1 0.5 0.5 0
38 1 0.625 0.5 0
39 1 0.75 0.5 0
40 1 0.875 0.5 0
41 1 1 0.625 0
42 1 0.125 0.625 0
43 1 0.25 0.625 0
44 1 0.375 0.625 0
45 1 0.5 0.625 0
46 1 0.625 0.625 0
47 1 0.75 0.625 0
48 1 0.875 0.625 0
49 1 1.22252e-10 0.75 0
50 1 0.125 0.75 0
51 1 0.25 0.75 0
52 1 0.375 0.75 0
53 1 0.5 0.75 0
54 1 0.625 0.75 0
55 1 0.75 0.75 0
56 1 0.875 0.75 0
57 1 1.64466e-10 0.875 0
58 1 0.125 0.875 0
59 1 0.25 0.875 0
60 1 0.375 0.875 0
61 1 0.5 0.875 0
62 1 0.625 0.875 0
63 1 0.75 0.875 0
64 1 0.875 0.875 0
65 1 9.21228e-11 3.32239e-10 0.125
66 1 0.125 3.32239e-10 0.125
67 1 0.25 3.32239e-10 0.125
68 1 0.375 3.32239e-10 0.125
69 1 0.5 3.32239e-10 0.125
70 1 0.625 3.32239e-10 0.125
71 1 0.75 3.32239e-10 0.125
72 1 0.875 3.32239e-10 0.125
73 1 1 0.125 0.125
74 1 0.125 0.125 0.125
75 1 0.25 0.125 0.125
76 1 0.375 0.125 0.125
77 1 0.5 0.125 0.125
78 1 0.625 0.125 0.125
79 1 0.75 0.125 0.125
80 1 0.875 0.125 0.125
81 1 1 0.25 0.125
82 1 0.125 0.25 0.125
83 1 0.25 0.25 0.125
84 1 0.375 0.25 0.125
85 1 0.5 0.25 0.125
86 1 0.625 0.25 0.125
87 1 0.75 0.25 0.125
88 1 0.875 0.25 0.125
89 1 2.94414e-10 0.375 0.125
90 1 0.125 0.375 0.125
91 1 0.25 0.375 0.125
92 1 0.375 0.375 0.125
93 1 0.5 0.375 0.125
94 1 0.625 0.375 0.125
95 1 0.75 0.375 0.125
96 1 0.875 0.375 0.125
97 1 1 0.5 0.125
98 1 0.125 0.5 0.125
99 1 0.25 0.5 0.125
100 1 0.375 0.5 0.125
101 1 0.5 0.5 0.125
102 1 0.625 0.5 0.125
103 1 0.75 0.5 0.125
104 1 0.875 0.5 0.125
105 1 1.72161e-10 0.625 0.125
106 1 0.125 0.625 0.125
107 1 0.25 0.625 0.125
108 1 0.375 0.625 0.125
109 1 0.5 0.625 0.125
110 1 0.625 0.625 0.125
111 1 0.75 0.625 0.125
112 1 0.875 0.625 0.125
113 1 2.14375e-10 0.75 0.125
114 1 0.125 0.75 0.125
115 1 0.25 0.75 0.125
116 1 0.375 0.75 0.125
117 1 0.5 0.75 0.125
118 1 0.625 0.75 0.125
119 1 0.75 0.75 0.125
120 1 0.875 0.75 0.125
121 1 5.38918e-10 0.875 0.125
122 1 0.125 0.875 0.125
123 1 0.25 0.875 0.125
124 1 0.375 0.875 0.125
125 1 0.5 0.875 0.125
126 1 0.625 0.875 0.125
127 1 0.75 0.875 0.125
128 1 0.875 0.875 0.125
129 1 1 1 0.25
130 1 0.125 1 0.25
131 1 0.25 1 0.25
132 1 0.375 1 0.25
133 1 0.5 1 0.25
134 1 0.625 1 0.25
135 1 0.75 1 0.25
136 1 0.875 1 0.25
137 1 1 0.125 0.25
138 1 0.125 0.125 0.25
139 1 0.25 0.125 0.25
140 1 0.375 0.125 0.25
141 1 0.5 0.125 0.25
142 1 0.625 0.125 0.25
143 1 0.75 0.125 0.25
144 1 0.875 0.125 0.25
145 1 1.44686e-10 0.25 0.25
146 1 0.125 0.25 0.25
147 1 0.25 0.25 0.25
148 1 0.375 0.25 0.25
149 1 0.5 0.25 0.25
150 1 0.625 0.25 0.25
151 1 0.75 0.25 0.25
152 1 0.875 0.25 0.25
153 1 1 0.375 0.25
154 1 0.125 0.375 0.25
155 1 0.25 0.375 0.25
156 1 0.375 0.375 0.25
157 1 0.5 0.375 0.25
158 1 0.625 0.375 0.25
159 1 0.75 0.375 0.25
160 1 0.875 0.375 0.25
161 1 2.24337e-11 0.5 0.25
162 1 0.125 0.5 0.25
163 1 0.25 0.5 0.25
164 1 0.375 0.5 0.25
165 1 0.5 0.5 0.25
166 1 0.625 0.5 0.25
167 1 0.75 0.5 0.25
168 1 0.875 0.5 0.25
169 1 6.46474e-11 0.625 0.25
170 1 0.125 0.625 0.25
171 1 0.25 0.625 0.25
172 1 0.375 0.625 0.25
173 1 0.5 0.625 0.25
174 1 0.625 0.625 0.25
175 1 0.75 0.625 0.25
176 1 0.875 0.625 0.25
177 1 3.8919e-10 0.75 0.25
178 1 0.125 0.75 0.25
179 1 0.25 0.75 0.25
180 1 0.375 0.75 0.25
181 1 0.5 0.75 0.25
182 1 0.625 0.75 0.25
183 1 0.75 0.75 0.25
184 1 0.875 0.75 0.25
185 1 1 0.875 0.25
186 1 0.125 0.875 0.25
187 1 0.25 0.875 0.25
188 1 0.375 0.875 0.25
189 1 0.5 0.875 0.25
190 1 0.625 0.875 0.25
191 1 0.75 0.875 0.25
192 1 0.875 0.875 0.25
193 1 1 2.3242e-10 0.375
194 1 0.125 2.3242e-10 0.375
195 1 0.25 2.3242e-10 0.375
196 1 0.375 2.3242e-10 0.375
197 1 0.5 2.3242e-10 0.375
198 1 0.625 2.3242e-10 0.375
199 1 0.75 2.3242e-10 0.375
200 1 0.875 2.3242e-10 0.375
201 1 1.94595e-10 0.125 0.375
202 1 0.125 0.125 0.375
203 1 0.25 0.125 0.375
204 1 0.375 0.125 0.375
205 1 0.5 0.125 0.375
206 1 0.625 0.125 0.375
207 1 0.75 0.125 0.375
208 1 0.875 0.125 0.375
209 1 1 0.25 0.375
210 1 0.125 0.25 0.375
211 1 0.25 0.25 0.375
212 1 0.375 0.25 0.375
213 1 0.5 0.25 0.375
214 1 0.625 0.25 0.375
215 1 0.75 0.25 0.375
216 1 0.875 0.25 0.375
217 1 7.2343e-11 0.375 0.375
218 1 0.125 0.375 0.375
219 1 0.25 0.375 0.375
220 1 0.375 0.375 0.375
221 1 0.5 0.375 0.375
222 1 0.625 0.375 0.375
223 1 0.75 0.375 0.375
224 1 0.875 0.375 0.375
225 1 1.14557e-10 0.5 0.375
226 1 0.125 0.5 0.375
227 1 0.25 0.5 0.375
228 1 0.375 0.5 0.375
229 1 0.5 0.5 0.375
230 1 0.625 0.5 0.375
231 1 0.75 0.5 0.375
232 1 0.875 0.5 0.375
233 1 4.39099e-10 0.625 0.375
234 1 0.125 0.625 0.375
235 1 0.25 0.625 0.375
236 1 0.375 0.625 0.375
237 1 0.5 0.625 0.375
238 1 0.625 0.625 0.375
239 1 0.75 0.625 0.375
240 1 0.875 0.625 0.375
241 1 1 0.75 0.375
242 1 0.125 0.75 0.375
243 1 0.25 0.75 0.375
244 1 0.375 0.75 0.375
245 1 0.5 0.75 0.375
246 1 0.625 0.75 0.375
247 1 0.75 0.75 0.375
248 1 0.875 0.75 0.375
249 1 3.16847e-10 0.875 0.375
250 1 0.125 0.875 0.375
251 1 0.25 0.875 0.375
252 1 0.375 0.875 0.375
253 1 0.5 0.875 0.375
254 1 0.625 0.875 0.375
255 1 0.75 0.875 0.375
256 1 0.875 0.875 0.375
257 1 2.44504e-10 0 0.5
258 1 0.125 0 0.5
259 1 0.25 0 0.5
260 1 0.375 0 0.5
261 1 0.5 0 0.5
262 1 0.625 0 0.5
263 1 0.75 0 0.5
264 1 0.875 0 0.5
265 1 1 0.125 0.5
266 1 0.125 0.125 0.5
267 1 0.25 0.125 0.5
268 1 0.375 0.125 0.5
269 1 0.5 0.125 0.5
270 1 0.625 0.125 0.5
271 1 0.75 0.125 0.5
272 1 0.875 0.125 0.5
273 1 1.22252e-10 0.25 0.5
274 1 0.125 0.25 0.5
275 1 0.25 0.25 0.5
276 1 0.375 0.25 0.5
277 1 0.5 0.25 0.5
278 1 0.625 0.25 0.5
279 1 0.75 0.25 0.5
280 1 0.875 0.25 0.5
281 1 1.64466e-10 0.375 0.5
282 1 0.125 0.375 0.5
283 1 0.25 0.375 0.5
284 1 0.375 0.375 0.5
285 1 0.5 0.375 0.5
286 1 0.625 0.375 0.5
287 1 0.75 0.375 0.5
288 1 0.875 0.375 0.5
289 1 4.89009e-10 0.5 0.5
290 1 0.125 0.5 0.5
291 1 0.25 0.5 0.5
292 1 0.375 0.5 0.5
293 1 0.5 0.5 0.5
294 1 0.625 0.5 0.5
295 1 0.75 0.5 0.5
296 1 0.875 0.5 0.5
297 1 4.22134e-11 0.625 0.5
298 1 0.125 0.625 0.5
299 1 0.25 0.625 0.5
300 1 0.375 0.625 0.5
301 1 0.5 0.625 0.5
302 1 0.625 0.625 0.5
303 1 0.75 0.625 0.5
304 1 0.875 0.625 0.5
305 1 3.66757e-10 0.75 0.5
306 1 0.125 0.75 0.5
307 1 0.25 0.75 0.5
308 1 0.375 0.75 0.5
309 1 0.5 0.75 0.5
310 1 0.625 0.75 0.5
311 1 0.75 0.75 0.5
312 1 0.875 0.75 0.5
313 1 4.0897e-10 0.875 0.5
314 1 0.125 0.875 0.5
315 1 0.25 0.875 0.5
316 1 0.375 0.875 0.5
317 1 0.5 0.875 0.5
318 1 0.625 0.875 0.5
319 1 0.75 0.875 0.5
320 1 0.875 0.875 0.5
321 1 1 1.32602e-10 0.625
322 1 0.125 1.32602e-10 0.625
323 1 0.25 1.32602e-10 0.625
324 1 0.375 1.32602e-10 0.625
325 1 0.5 1.32602e-10 0.625
326 1 0.625 1.32602e-10 0.625
327 1 0.75 1.32602e-10 0.625
328 1 0.875 1.32602e-10 0.625
329 1 1 0.125 0.625
330 1 0.125 0.125 0.625
331 1 0.25 0.125 0.625
332 1 0.375 0.125 0.625
333 1 0.5 0.125 0.625
334 1 0.625 0.125 0.625
335 1 0.75 0.125 0.625
336 1 0.875 0.125 0.625
337 1 1.47379e-11 0.25 0.625
338 1 0.125 0.25 0.625
339 1 0.25 0.25 0.625
340 1 0.375 0.25 0.625
341 1 0.5 0.25 0.625
342 1 0.625 0.25 0.625
343 1 0.75 0.25 0.625
344 1 0.875 0.25 0.625
345 1 3.39281e-10 0.375 0.625
346 1 0.125 0.375 0.625
347 1 0.25 0.375 0.625
348 1 0.375 0.375 0.625
349 1 0.5 0.375 0.625
350 1 0.625 0.375 0.625
351 1 0.75 0.375 0.625
352 1 0.875 0.375 0.625
353 1 1 0.5 0.625
354 1 0.125 0.5 0.625
355 1 0.25 0.5 0.625
356 1 0.375 0.5 0.625
357 1 0.5 0.5 0.625
358 1 0.625 0.5 0.625
359 1 0.75 0.5 0.625
360 1 0.875 0.5 0.625
361 1 2.17029e-10 0.625 0.625
362 1 0.125 0.625 0.625
363 1 0.25 0.625 0.625
364 1 0.375 0.625 0.625
365 1 0.5 0.625 0.625
366 1 0.625 0.625 0.625
367 1 0.75 0.625 0.625
368 1 0.875 0.625 0.625
369 1 2.59242e-10 0.75 0.625
370 1 0.125 0.75 0.625
371 1 0.25 0.75 0.625
372 1 0.375 0.75 0.625
373 1 0.5 0.75 0.625
374 1 0.625 0.75 0.625
375 1 0.75 0.75 0.625
376 1 0.875 0.75 0.625
377 1 9.47767e-11 0.875 0.625
378 1 0.125 0.875 0.625
379 1 0.25 0.875 0.625
380 1 0.375 0.875 0.625
381 1 0.5 0.875 0.625
382 1 0.625 0.875 0.625
383 1 0.75 0.875 0.625
384 1 0.875 0.875 0.625
385 1 2.24335e-11 1 0.75
386 1 0.125 1 0.75
387 1 0.25 1 0.75
388 1 0.375 1 0.75
389 1 0.5 1 0.75
390 1 0.625 1 0.75
391 1 0.75 1 0.75
392 1 0.875 1 0.75
393 1 6.46473e-11 0.125 0.75
394 1 0.125 0.125 0.75
395 1 0.25 0.125 0.75
396 1 0.375 0.125 0.75
397 1 0.5 0.125 0.75
398 1 0.625 0.125 0.75
399 1 0.75 0.125 0.75
400 1 0.875 0.125 0.75
401 1 3.8919e-10 0.25 0.75
402 1 0.125 0.25 0.75
403 1 0.25 0.25 0.75
404 1 0.375 0.25 0.75
405 1 0.5 0.25 0.75
406 1 0.625 0.25 0.75
407 1 0.75 0.25 0.75
408 1 0.875 0.25 0.75
409 1 1 0.375 0.75
410 1 0.125 0.375 0.75
411 1 0.25 0.375 0.75
412 1 0.375 0.375 0.75
413 1 0.5 0.375 0.75
414 1 0.625 0.375 0.75
415 1 0.75 0.375 0.75
416 1 0.875 0.375 0.75
417 1 2.66938e-10 0.5 0.75
418 1 0.125 0.5 0.75
419 1 0.25 0.5 0.75
420 1 0.375 0.5 0.75
421 1 0.5 0.5 0.75
422 1 0.625 0.5 0.75
423 1 0.75 0.5 0.75
424 1 0.875 0.5 0.75
425 1 3.09152e-10 0.625 0.75
426 1 0.125 0.625 0.75
427 1 0.25 0.625 0.75
428 1 0.375 0.625 0.75
429 1 0.5 0.625 0.75
430 1 0.625 0.625 0.75
431 1 0.75 0.625 0.75
432 1 0.875 0.625 0.75
433 1 1.44686e-10 0.75 0.75
434 1 0.125 0.75 0.75
435 1 0.25 0.75 0.75
436 1 0.375 0.75 0.75
437 1 0.5 0.75 0.75
438 1 0.625 0.75 0.75
439 1 0.75 0.75 0.75
440 1 0.875 0.75 0.75
441 1 1.86899e-10 0.875 0.75
442 1 0.125 0.875 0.75
443 1 0.25 0.875 0.75
444 1 0.375 0.875 0.75
445 1 0.5 0.875 0.75
446 1 0.625 0.875 0.75
447 1 0.75 0.875 0.75
448 1 0.875 0.875 0.75
449 1 1.14557e-10 2.3242e-10 0.875
450 1 0.125 2.3242e-10 0.875
451 1 0.25 2.3242e-10 0.875
452 1 0.375 2.3242e-10 0.875
453 1 0.5 2.3242e-10 0.875
454 1 0.625 2.3242e-10 0.875
455 1 0.75 2.3242e-10 0.875
456 1 0.875 2.3242e-10 0.875
457 1 4.39099e-10 0.125 0.875
458 1 0.125 0.125 0.875
459 1 0.25 0.125 0.875
460 1 0.375 0.125 0.875
461 1 0.5 0.125 0.875
462 1 0.625 0.125 0.875
463 1 0.75 0.125 0.875
464 1 0.875 0.125 0.875
465 1 1 0.25 0.875
466 1 0.125 0.25 0.875
467 1 0.25 0.25 0.875
468 1 0.375 0.25 0.875
469 1 0.5 0.25 0.875
470 1 0.625 0.25 0.875
471 1 0.75 0.25 0.875
472 1 0.875 0.25 0.875
473 1 3.16847e-10 0.375 0.875
474 1 0.125 0.375 0.875
475 1 0.25 0.375 0.875
476 1 0.375 0.375 0.875
477 1 0.5 0.375 0.875
478 1 0.625 0.375 0.875
479 1 0.75 0.375 0.875
480 1 0.875 0.375 0.875
481 1 3.59061e-10 0.5 0.875
482 1 0.125 0.5 0.875
483 1 0.25 0.5 0.875
484 1 0.375 0.5 0.875
485 1 0.5 0.5 0.875
486 1 0.625 0.5 0.875
487 1 0.75 0.5 0.875
488 1 0.875 0.5 0.875
489 1 1.94595e-10 0.625 0.875
490 1 0.125 0.625 0.875
491 1 0.25 0.625 0.875
492 1 0.375 0.625 0.875
493 1 0.5 0.625 0.875
494 1 0.625 0.625 0.875
495 1 0.75 0.625 0.875
496 1 0.875 0.625 0.875
497 1 2.36809e-10 0.75 0.875
498 1 0.125 0.75 0.875
499 1 0.25 0.75 0.875
500 1 0.375 0.75 0.875
501 1 0.5 0.75 0.875
502 1 0.625 0.75 0.875
503 1 0.75 0.75 0.875
504 1 0.875 0.75 0.875
505 1 5.61352e-10 0.875 0.875
506 1 0.125 0.875 0.875
507 1 0.25 0.875 0.875
508 1 0.375 0.875 0.875
509 1 0.5 0.875 0.875
510 1 0.625 0.875 0.875
511 1 0.75 0.875 0.875
512 1 0.875 0.875 0.875
ITEM: TIMESTEP
50000
ITEM: NUMBER OF ATOMS
512
ITEM: BOX BOUNDS xy xz yz pp pp pp
-5.1500670001720650e-02 4.1053558219954859e+01 1.0276264719976453e+01
-4.4600888536765027e-02 2.3687415934227573e+01 1.0276264719976453e+01
-4.2050120963056159e-02 1.6739019900963154e+01 5.9330042056911605e+00
ITEM: ATOMS id type xs ys zs
1 1 0.991639 0.998609 0.00421256
2 1 0.118162 0.00360249 0.997089
3 1 0.250231 0.00494774 0.997256
4 1 0.382399 0.997016 0.997852
5 1 0.499649 0.000156366 0.998125
6 1 0.62411 0.995847 0.00229068
7 1 0.75087 0.99477 0.00132683
8 1 0.867819 0.995616 0.00655376
9 1 1.00033 0.12604 -0.00128891
10 1 0.127119 0.127044 0.999249
11 1 0.252179 0.124894 0.999154
12 1 0.376137 0.127229 0.992692
13 1 0.497199 0.120418 0.00407733
14 1 0.622632 0.121029 0.00229482
15 1 0.746221 0.121732 0.0031701
16 1 0.870221 0.12099 0.0103337
17 1 0.991591 0.249896 0.00639759
18 1 0.125494 0.249219 0.00590616
19 1 0.245208 0.2441 0.00469778
20 1 0.374435 0.241508 0.00308904
21 1 0.504363 0.244112 0.00100789
22 1 0.617269 0.259543 0.99812
23 1 0.747669 0.258132 0.995416
24 1 0.875423 0.251548 0.996036
25 1 0.99299 0.372366 0.00732334
26 1 0.123661 0.371128 0.00329168
27 1 0.251419 0.36937 0.0129126
28 1 0.384046 0.362586 0.0120029
29 1 0.498508 0.375813 0.00674735
30 1 0.614325 0.387321 0.998265
31 1 0.743342 0.377179 0.998736
32 1 0.866085 0.381074 0.995964
33 1 -0.00168145 0.503904 0.00224103
34 1 0.12704 0.499562 0.00336558
35 1 0.248871 0.497587 0.00667963
36 1 0.378343 0.499943 0.994774
37 1 0.492248 0.511047 0.00219302
38 1 0.622748 0.511555 0.995271
39 1 0.746293 0.503698 0.00212325
40 1 0.87886 0.498522 0.994308
41 1 0.00671984 0.616847 0.00917631
42 1 0.12638 0.629249 0.999697
43 1 0.244802 0.626664 0.00292555
44 1 0.374815 0.624569 0.990744
45 1 0.50191 0.630146 0.99622
46 1 0.629938 0.628412 -0.000843991
47 1 0.760297 0.620412 0.00552394
48 1 0.880581 0.61949 0.00290561
49 1 0.00444529 0.746165 1.00052
50 1 0.119762 0.75607 0.995957
51 1 0.247699 0.744947 0.998558
52 1 0.376391 0.754217 0.995818
53 1 0.500606 0.751653 0.993973
54 1 0.632604 0.745174 0.00137194
55 1 0.750442 0.748837 0.00303291
56 1 0.875463 0.744739 0.00385765
57 1 0.000898743 0.874381 0.997766
58 1 0.119215 0.878889 0.00285535
59 1 0.250147 0.880105 -6.74939e-05
60 1 0.379304 0.873181 0.999346
61 1 0.504948 0.872529 0.00343823
62 1 0.622435 0.882001 0.996234
63 1 0.75568 0.86988 0.0044235
64 1 0.877092 0.870686 0.994666
65 1 0.992132 0.00214933 0.125488
66 1 0.124369 0.998084 0.12693
67 1 0.25362 1.00023 0.125215
68 1 0.377773 0.000423515 0.117462
69 1 0.493232 0.00217611 0.129457
70 1 0.621575 -0.00161845 0.12857
71 1 0.750899 -0.000227646 0.128074
72 1 0.877558 0.990772 0.122771
73 1 0.00135201 0.129907 0.123644
74 1 0.12018 0.122606 0.128493
75 1 0.251328 0.124151 0.121429
76 1 0.370754 0.121998 0.121413
77 1 0.497629 0.122394 0.133872
78 1 0.617857 0.13255 0.123242
79 1 0.748028 0.130084 0.12108
80 1 0.870192 0.130565 0.124196
81 1 0.996945 0.253673 0.126746
82 1 0.117147 0.245887 0.133115
83 1 0.245895 0.250962 0.12894
84 1 0.382757 0.241816 0.127729
85 1 0.499404 0.261784 0.122258
86 1 0.621101 0.253532 0.127176
87 1 0.751443 0.256173 0.127152
88 1 0.881528 0.245443 0.125765
89 1 0.997996 0.376966 0.132132
90 1 0.11662 0.377244 0.126665
91 1 0.25688 0.369363 0.135128
92 1 0.374675 0.379813 0.131186
93 1 0.495564 0.384075 0.125841
94 1 0.619226 0.384553 0.120901
95 1 0.749507 0.376996 0.120871
96 1 0.869766 0.383443 0.125363
97 1 0.0027986 0.497121 0.131861
98 1 0.13311 0.499864 0.120815
99 1 0.258624 0.504513 0.117474
100 1 0.374515 0.507005 0.117347
101 1 0.499788 0.503021 0.125229
102 1 0.623234 0.503584 0.120265
103 1 0.747811 0.508647 0.125648
104 1 0.865991 0.503525 0.13048
105 1 0.00658939 0.619203 0.12674
106 1 0.122637 0.62498 0.125196
107 1 0.247263 0.626351 0.118401
108 1 0.368769 0.633219 0.119923
109 1 0.4896 0.633067 0.113814
110 1 0.619032 0.629086 0.123422
111 1 0.748078 0.629828 0.127471
112 1 0.878003 0.621511 0.127945
113 1 0.995919 0.753164 0.127735
114 1 0.127941 0.745833 0.113722
115 1 0.240014 0.757186 0.122012
116 1 0.370034 0.760054 0.118405
117 1 0.499633 0.752005 0.129031
118 1 0.620675 0.74563 0.128417
119 1 0.747284 0.757342 0.124032
120 1 0.880352 0.7453 0.124399
121 1 0.00246204 0.878489 0.115395
122 1 0.120791 0.871488 0.125496
123 1 0.242988 0.877622 0.126406
124 1 0.377406 0.871617 0.125117
125 1 0.495722 0.883102 0.121065
126 1 0.620556 0.875611 0.120795
127 1 0.751112 0.876619 0.127728
128 1 0.87594 0.869631 0.127674
129 1 0.994229 2.89345e-06 0.252739
130 1 0.125166 1.75636e-05 0.248958
131 1 0.24867 0.997574 0.256657
132 1 0.376824 0.0019597 0.2472
133 1 0.49134 1.00332 0.256946
134 1 0.625321 9.48446e-05 0.251774
135 1 0.748157 0.00802599 0.242677
136 1 0.86954 0.000792591 0.245549
137 1 0.9955 0.133774 0.245256
138 1 0.119243 0.123598 0.25907
139 1 0.247939 0.12803 0.246548
140 1 0.367205 0.122124 0.253261
141 1 0.502401 0.126582 0.248975
142 1 0.62791 0.1226 0.246685
143 1 0.746835 0.128268 0.248016
144 1 0.878129 0.13218 0.240972
145 1 0.995079 0.245324 0.251735
146 1 0.124061 0.248166 0.252709
147 1 0.250612 0.247326 0.251635
148 1 0.375011 0.249044 0.252598
149 1 0.500176 0.251203 0.247919
150 1 0.622239 0.251144 0.248325
151 1 0.749237 0.242746 0.256314
152 1 0.867783 0.25154 0.255568
153 1 0.991318 0.379221 0.25536
154 1 0.129282 0.368904 0.251394
155 1 0.25465 0.377439 0.251205
156 1 0.374848 0.364293 0.262605
157 1 0.500128 0.383263 0.250506
158 1 0.626485 0.380989 0.250663
159 1 0.745544 0.382568 0.257809
160 1 0.873909 0.379725 0.249941
161 1 0.0035664 0.493408 0.256143
162 1 0.128615 0.497304 0.248012
163 1 0.252811 0.49828 0.245807
164 1 0.377141 0.497371 0.237832
165 1 0.501717 0.504766 0.245697
166 1 0.625812 0.503512 0.248319
167 1 0.748219 0.502861 0.250546
168 1 0.877547 0.503006 0.248475
169 1 0.998035 0.620923 0.256187
170 1 0.126889 0.626485 0.23991
171 1 0.251154 0.625152 0.24632
172 1 0.372702 0.632013 0.243424
173 1 0.502162 0.623312 0.250457
174 1 0.620156 0.631552 0.250017
175 1 0.75305 0.622188 0.251058
176 1 0.885365 0.619664 0.244111
177 1 0.00173163 0.745059 0.255002
178 1 0.124768 0.752641 0.247495
179 1 0.245389 0.745562 0.255315
180 1 0.373708 0.746443 0.245599
181 1 0.493586 0.746845 0.261438
182 1 0.625137 0.743176 0.259698
183 1 0.753223 0.755415 0.246683
184 1 0.885713 0.74071 0.252694
185 1 0.994651 0.882301 0.246516
186 1 0.121034 0.881551 0.242646
187 1 0.239815 0.875771 0.257607
188 1 0.372757 0.882511 0.24544
189 1 0.501243 0.873966 0.256524
190 1 0.621334 0.885745 0.251069
191 1 0.747379 0.878621 0.247979
192 1 0.86754 0.868278 0.254179
193 1 0.995833 0.00181549 0.371529
194 1 0.121813 0.00287105 0.377725
195 1 0.252925 0.00174023 0.373976
196 1 0.372928 0.993073 0.390976
197 1 0.500831 0.00231046 0.374122
198 1 0.625062 0.00410507 0.371484
199 1 0.752031 0.00731904 0.365748
200 1 0.874413 0.00418788 0.371354
201 1 0.990575 0.122392 0.381698
202 1 0.119171 0.129864 0.375244
203 1 0.239194 0.12462 0.375193
204 1 0.366816 0.126161 0.373869
205 1 0.500154 0.125727 0.371781
206 1 0.622847 0.134461 0.366616
207 1 0.74709 0.126008 0.371131
208 1 0.8647 0.128261 0.379571
209 1 0.993442 0.249757 0.372511
210 1 0.123523 0.246662 0.37522
211 1 0.252142 0.242403 0.375983
212 1 0.37718 0.243826 0.374684
213 1 0.495531 0.254439 0.375345
214 1 0.623516 0.248928 0.375233
215 1 0.743865 0.253657 0.379692
216 1 0.878269 0.256296 0.369042
217 1 0.0016474 0.37833 0.372149
218 1 0.128964 0.375079 0.373052
219 1 0.251689 0.357402 0.384714
220 1 0.371275 0.377366 0.383723
221 1 0.503703 0.379413 0.372435
222 1 0.625003 0.378999 0.378962
223 1 0.751924 0.374457 0.379654
224 1 0.870991 0.374848 0.385563
225 1 0.00843554 0.494172 0.378502
226 1 0.132869 0.493767 0.373367
227 1 0.255772 0.495269 0.371915
228 1 0.386348 0.504353 0.362499
229 1 0.510316 0.496219 0.372116
230 1 0.627791 0.498671 0.375189
231 1 0.746598 0.501253 0.375051
232 1 0.876618 0.502811 0.3735
233 1 0.998983 0.616822 0.380274
234 1 0.128304 0.620651 0.372601
235 1 0.250246 0.627751 0.370696
236 1 0.374462 0.623977 0.375429
237 1 0.506391 0.624953 0.38012
238 1 0.628541 0.629443 0.375251
239 1 0.756742 0.633737 0.362315
240 1 0.882543 0.620974 0.37797
241 1 -0.000597629 0.742428 0.375422
242 1 0.1231 0.75241 0.364241
243 1 0.247506 0.743811 0.377999
244 1 0.370879 0.741295 0.376757
245 1 0.494281 0.759282 0.378889
246 1 0.623724 0.760965 0.370018
247 1 0.752114 0.750729 0.37428
248 1 0.876438 0.745579 0.376932
249 1 0.98779 0.874658 0.377856
250 1 0.118057 0.879472 0.378567
251 1 0.244632 0.86593 0.388106
252 1 0.370275 0.878134 0.377134
253 1 0.506579 0.878535 0.367943
254 1 0.626271 0.874165 0.376721
255 1 0.750437 0.877935 0.373309
256 1 0.875822 0.873654 0.36301
257 1 0.995032 1.00133 0.500937
258 1 0.124832 0.00655773 0.504367
259 1 0.245729 0.993442 0.508043
260 1 0.374449 0.996792 0.50607
261 1 0.495072 0.00435095 0.496168
262 1 0.619787 0.00231594 0.496609
263 1 0.747952 0.00229547 0.493057
264 1 0.877425 0.00716918 0.495782
265 1 0.998695 0.125625 0.496756
266 1 0.125429 0.122904 0.504055
267 1 0.242929 0.124874 0.504607
268 1 0.372048 0.118108 0.51068
269 1 0.503665 0.121275 0.502618
270 1 0.624313 0.130884 0.492975
271 1 0.750975 0.119139 0.506585
272 1 0.870739 0.128771 0.492395
273 1 0.00483094 0.250387 0.498257
274 1 0.116881 0.258749 0.497653
275 1 0.253404 0.247486 0.498917
276 1 0.371579 0.246385 0.504871
277 1 0.500437 0.256681 0.501012
278 1 0.626703 0.244665 0.506532
279 1 0.75309 0.253446 0.495937
280 1 0.875838 0.249446 0.498552
281 1 0.997455 0.373321 0.504861
282 1 0.130105 0.372574 0.498949
283 1 0.256867 0.37035 0.498064
284 1 0.380478 0.370894 0.496299
285 1 0.501283 0.374962 0.501089
286 1 0.632175 0.371362 0.506515
287 1 0.749054 0.378853 0.504497
288 1 0.87959 0.381178 0.498895
289 1 0.0081595 0.496473 0.499702
290 1 0.126097 0.497252 0.496072
291 1 0.264003 0.501787 0.488938
292 1 0.381065 0.4937 0.498063
293 1 0.494836 0.498488 0.502218
294 1 0.624312 0.503701 0.50183
295 1 0.755375 0.502053 0.49545
296 1 0.880693 0.496906 0.504741
297 1 0.00235746 0.625781 0.497642
298 1 0.126566 0.626841 0.491626
299 1 0.246973 0.624064 0.502412
300 1 0.378533 0.618644 0.498829
301 1 0.500415 0.62732 0.49932
302 1 0.627375 0.633174 0.489517
303 1 0.745638 0.628095 0.502966
304 1 0.874207 0.630455 0.499141
305 1 0.00249583 0.752662 0.491031
306 1 0.122163 0.748421 0.502439
307 1 0.252506 0.745263 0.500802
308 1 0.374795 0.749433 0.499134
309 1 0.506815 0.747057 0.493668
310 1 0.623949 0.752867 0.501978
311 1 0.749326 0.750579 0.505429
312 1 0.877256 0.755804 0.495062
313 1 0.000861299 0.876887 0.501188
314 1 0.126672 0.873994 0.499051
315 1 0.255012 0.866174 0.503845
316 1 0.377087 0.865523 0.504967
317 1 0.495335 0.873256 0.497105
318 1 0.624569 0.875668 0.502448
319 1 0.752623 0.87516 0.494181
320 1 0.874088 0.876769 0.500948
321 1 0.999827 0.000270139 0.623122
322 1 0.124353 0.991958 0.634393
323 1 0.250056 0.000232349 0.627178
324 1 0.369114 0.00219725 0.627828
325 1 0.49736 0.999959 0.624951
326 1 0.621569 0.0080626 0.617126
327 1 0.753411 0.997227 0.620792
328 1 0.870025 0.00390573 0.624182
329 1 -0.00148248 0.130487 0.623571
330 1 0.121519 0.123396 0.627854
331 1 0.246197 0.121453 0.631551
332 1 0.377732 0.124328 0.619706
333 1 0.502135 0.130644 0.61675
334 1 0.627316 0.12258 0.62402
335 1 0.751511 0.124309 0.631637
336 1 0.876884 0.125384 0.623488
337 1 -0.00269438 0.246774 0.626774
338 1 0.126985 0.250374 0.626625
339 1 0.244275 0.253314 0.631509
340 1 0.370421 0.253045 0.624429
341 1 0.499495 0.257832 0.622352
342 1 0.626741 0.24119 0.633613
343 1 0.749618 0.257459 0.62725
344 1 0.872832 0.252676 0.623973
345 1 0.00456055 0.376589 0.623081
346 1 0.136254 0.372074 0.616411
347 1 0.256803 0.372132 0.624574
348 1 0.376109 0.37551 0.620167
349 1 0.497931 0.373623 0.626197
350 1 0.620004 0.370259 0.631252
351 1 0.752449 0.381549 0.626167
352 1 0.881297 0.372072 0.625512
353 1 0.00300589 0.503139 0.619431
354 1 0.129909 0.506528 0.619511
355 1 0.259313 0.498407 0.618353
356 1 0.380267 0.493743 0.620361
357 1 0.504152 0.491245 0.6242
358 1 0.630761 0.500286 0.620617
359 1 0.745877 0.496312 0.634849
360 1 0.880236 0.497683 0.624723
361 1 0.0107004 0.623382 0.618562
362 1 0.127827 0.627977 0.630531
363 1 0.251942 0.625354 0.625929
364 1 0.374975 0.631273 0.622398
365 1 0.502404 0.626069 0.615858
366 1 0.623824 0.62172 0.623686
367 1 0.754824 0.619765 0.625582
368 1 0.882038 0.624026 0.619444
369 1 0.999918 0.748195 0.622582
370 1 0.129898 0.746328 0.630681
371 1 0.25948 0.74288 0.631844
372 1 0.382282 0.743782 0.625014
373 1 0.49926 0.752071 0.622154
374 1 0.627498 0.748887 0.62818
375 1 0.752477 0.75161 0.618106
376 1 0.883584 0.749329 0.619783
377 1 0.00269094 0.871276 0.621513
378 1 0.13284 0.874851 0.619665
379 1 0.249845 0.867757 0.631511
380 1 0.371767 0.875742 0.628338
381 1 0.495682 0.871879 0.625378
382 1 0.629457 0.884523 0.613385
383 1 0.747029 0.881471 0.61743
384 1 0.872649 0.874536 0.621725
385 1 0.999982 0.00351393 0.748997
386 1 0.119196 0.995146 0.757507
387 1 0.241525 0.00141794 0.76372
388 1 0.377278 0.997984 0.745638
389 1 0.49515 0.00486739 0.751756
390 1 0.631255 0.996876 0.743455
391 1 0.737569 0.997084 0.75703
392 1 0.879866 0.992933 0.749882
393 1 0.00247566 0.127664 0.7508
394 1 0.121203 0.129807 0.755508
395 1 0.249595 0.126747 0.755651
396 1 0.377156 0.121089 0.750919
397 1 0.504605 0.120553 0.749156
398 1 0.620261 0.122655 0.757123
399 1 0.748884 0.122331 0.755479
400 1 0.872875 0.121064 0.747369
401 1 0.00722965 0.254289 0.744613
402 1 0.124993 0.253387 0.750036
403 1 0.252618 0.245942 0.75251
404 1 0.374717 0.24948 0.746139
405 1 0.49544 0.247282 0.755539
406 1 0.622416 0.248174 0.74718
407 1 0.748615 0.244844 0.7502
408 1 0.877033 0.240439 0.75479
409 1 1.00546 0.378998 0.743761
410 1 0.130886 0.380427 0.742244
411 1 0.253343 0.379716 0.747349
412 1 0.375305 0.376743 0.746951
413 1 0.496017 0.378188 0.756296
414 1 0.629428 0.378609 0.749307
415 1 0.757401 0.369204 0.75402
416 1 0.877347 0.37387 0.752541
417 1 0.0116304 0.50105 0.744061
418 1 0.131339 0.502987 0.745864
419 1 0.254133 0.500098 0.750023
420 1 0.376712 0.493734 0.755581
421 1 0.507469 0.496036 0.749224
422 1 0.629196 0.493995 0.756268
423 1 0.754988 0.500161 0.746661
424 1 0.877311 0.501046 0.750032
425 1 0.00125669 0.631233 0.747221
426 1 0.125839 0.627116 0.744813
427 1 0.244702 0.627444 0.748846
428 1 0.377533 0.61774 0.748851
429 1 0.500399 0.626406 0.748337
430 1 0.631571 0.623273 0.747729
431 1 0.758724 0.619566 0.754591
432 1 0.879541 0.625509 0.749046
433 1 0.00560687 0.747056 0.745611
434 1 0.129184 0.746235 0.746422
435 1 0.249942 0.749465 0.752109
436 1 0.377639 0.746034 0.748437
437 1 0.494018 0.757047 0.749986
438 1 0.629344 0.747206 0.747242
439 1 0.754143 0.748822 0.743323
440 1 0.876457 0.748691 0.749104
441 1 1.00319 0.8778 0.741832
442 1 0.123465 0.867837 0.751886
443 1 0.241401 0.873191 0.756747
444 1 0.358391 0.877295 0.752242
445 1 0.497665 0.876067 0.75066
446 1 0.621127 0.871223 0.752075
447 1 0.754122 0.871155 0.742442
448 1 0.869217 0.872394 0.751719
449 1 0.997254 1.00016 0.881233
450 1 0.125913 0.998586 0.879398
451 1 0.244393 0.998422 0.884812
452 1 0.376196 0.998817 0.871559
453 1 0.500022 0.00498883 0.86987
454 1 0.621545 0.000719233 0.871449
455 1 0.753281 0.992649 0.877132
456 1 0.875525 0.994228 0.874572
457 1 0.993442 0.122823 0.878153
458 1 0.113336 0.13144 0.879796
459 1 0.250536 0.130778 0.872725
460 1 0.383849 0.120465 0.87269
461 1 0.500999 0.129744 0.877886
462 1 0.621487 0.126599 0.872054
463 1 0.741888 0.121417 0.876408
464 1 0.871117 0.12353 0.874112
465 1 0.992893 0.255029 0.874416
466 1 0.128945 0.251843 0.87692
467 1 0.251221 0.253865 0.873219
468 1 0.374068 0.255584 0.880423
469 1 0.506295 0.250463 0.872575
470 1 0.627693 0.242949 0.872602
471 1 0.748787 0.247677 0.880858
472 1 0.875646 0.241644 0.879329
473 1 0.00337654 0.37397 0.869746
474 1 0.123914 0.373878 0.880788
475 1 0.247644 0.373252 0.879415
476 1 0.374025 0.370186 0.879246
477 1 0.499906 0.365134 0.882233
478 1 0.628394 0.375354 0.874152
479 1 0.749893 0.375015 0.877208
480 1 0.877952 0.375468 0.867886
481 1 0.008494 0.501559 0.867462
482 1 0.132695 0.493576 0.875848
483 1 0.260971 0.495886 0.873993
484 1 0.380669 0.494441 0.872866
485 1 0.501714 0.501449 0.871434
486 1 0.622375 0.503289 0.87426
487 1 0.752116 0.49545 0.871928
488 1 0.883 0.496375 0.873325
489 1 0.00926556 0.624704 0.867207
490 1 0.12451 0.626445 0.873296
491 1 0.249767 0.622939 0.871651
492 1 0.366819 0.624844 0.876002
493 1 0.502856 0.626135 0.871953
494 1 0.629538 0.625134 0.868447
495 1 0.754425 0.619227 0.877084
496 1 0.873398 0.626616 0.873572
497 1 0.999295 0.744334 0.882052
498 1 0.121899 0.753053 0.869715
499 1 0.243971 0.752184 0.875116
500 1 0.369647 0.747613 0.876069
501 1 0.507746 0.74249 0.871135
502 1 0.629286 0.749482 0.872034
503 1 0.749531 0.747503 0.874616
504 1 0.875126 0.746892 0.87864
505 1 0.997459 0.876309 0.876568
506 1 0.114851 0.877616 0.874338
507 1 0.2429 0.873606 0.88373
508 1 0.373587 0.871288 0.874328
509 1 0.498282 0.870109 0.87593
510 1 0.624994 0.877973 0.871339
511 1 0.750807 0.868679 0.872191
512 1 0.878485 0.866275 0.874
ITEM: TIMESTEP
100000
ITEM: NUMBER OF ATOMS
512
ITEM: BOX BOUNDS xy xz yz pp pp pp