ITEM: TIMESTEP
0
ITEM: NUMBER OF ATOMS
512
ITEM: BOX BOUNDS xy xz yz pp pp pp
0.0000000000000000e+00 4.6228203219999997e+01 1.1557050800000001e+01
0.0000000000000000e+00 2.6689865579999999e+01 1.1557050800000001e+01
0.0000000000000000e+00 1.8872584490000001e+01 6.6724663900000003e+00
ITEM: ATOMS id type xs ys zs
1 1 0 0 0
2 1 0.125004 0 0
3 1 0.250007 0 0
4 1 0.375011 0 0
5 1 0.500014 0 0
6 1 0.625018 0 0
7 1 0.750022 0 0
8 1 0.875025 0 0
9 1 1 0.125004 0
10 1 0.125004 0.125004 0
11 1 0.250007 0.125004 0
12 1 0.375011 0.125004 0
13 1 0.500014 0.125004 0
14 1 0.625018 0.125004 0
15 1 0.750022 0.125004 0
16 1 0.875025 0.125004 0
17 1 1 0.250007 0
18 1 0.125004 0.250007 0
19 1 0.250007 0.250007 0
20 1 0.375011 0.250007 0
21 1 0.500014 0.250007 0
22 1 0.625018 0.250007 0
23 1 0.750022 0.250007 0
24 1 0.875025 0.250007 0
25 1 1 0.375011 0
26 1 0.125004 0.375011 0
27 1 0.250007 0.375011 0
28 1 0.375011 0.375011 0
29 1 0.500014 0.375011 0
30 1 0.625018 0.375011 0
31 1 0.750022 0.375011 0
32 1 0.875025 0.375011 0
33 1 5.51848e-10 0.500014 0
34 1 0.125004 0.500014 0
35 1 0.250007 0.500014 0
36 1 0.375011 0.500014 0
37 1 0.500014 0.500014 0
38 1 0.625018 0.500014 0
39 1 0.750022 0.500014 0
40 1 0.875025 0.500014 0
41 1 1 0.625018 0
42 1 0.125004 0.625018 0
43 1 0.250007 0.625018 0
44 1 0.375011 0.625018 0
45 1 0.500014 0.625018 0
46 1 0.625018 0.625018 0
47 1 0.750022 0.625018 0
48 1 0.875025 0.625018 0
49 1 1.78817e-10 0.750022 0
50 1 0.125004 0.750022 0
51 1 0.250007 0.750022 0
52 1 0.375011 0.750022 0
53 1 0.500014 0.750022 0
54 1 0.625018 0.750022 0
55 1 0.750022 0.750022 0
56 1 0.875025 0.750022 0
57 1 3.90225e-10 0.875025 0
58 1 0.125004 0.875025 0
59 1 0.250007 0.875025 0
60 1 0.375011 0.875025 0
61 1 0.500014 0.875025 0
62 1 0.625018 0.875025 0
63 1 0.750022 0.875025 0
64 1 0.875025 0.875025 0
65 1 1 1 0.125004
66 1 0.125004 1 0.125004
67 1 0.250007 1 0.125004
68 1 0.375011 1 0.125004
69 1 0.500014 1 0.125004
70 1 0.625018 1 0.125004
71 1 0.750022 1 0.125004
72 1 0.875025 1 0.125004
73 1 1 0.125004 0.125004
74 1 0.125004 0.125004 0.125004
75 1 0.250007 0.125004 0.125004
76 1 0.375011 0.125004 0.125004
77 1 0.500014 0.125004 0.125004
78 1 0.625018 0.125004 0.125004
79 1 0.750022 0.125004 0.125004
80 1 0.875025 0.125004 0.125004
81 1 1 0.250007 0.125004
82 1 0.125004 0.250007 0.125004
83 1 0.250007 0.250007 0.125004
84 1 0.375011 0.250007 0.125004
85 1 0.500014 0.250007 0.125004
86 1 0.625018 0.250007 0.125004
87 1 0.750022 0.250007 0.125004
88 1 0.875025 0.250007 0.125004
89 1 1 0.375011 0.125004
90 1 0.125004 0.375011 0.125004
91 1 0.250007 0.375011 0.125004
92 1 0.375011 0.375011 0.125004
93 1 0.500014 0.375011 0.125004
94 1 0.625018 0.375011 0.125004
95 1 0.750022 0.375011 0.125004
96 1 0.875025 0.375011 0.125004
97 1 1 0.500014 0.125004
98 1 0.125004 0.500014 0.125004
99 1 0.250007 0.500014 0.125004
100 1 0.375011 0.500014 0.125004
101 1 0.500014 0.500014 0.125004
102 1 0.625018 0.500014 0.125004
103 1 0.750022 0.500014 0.125004
104 1 0.875025 0.500014 0.125004
105 1 1 0.625018 0.125004
106 1 0.125004 0.625018 0.125004
107 1 0.250007 0.625018 0.125004
108 1 0.375011 0.625018 0.125004
109 1 0.500014 0.625018 0.125004
110 1 0.625018 0.625018 0.125004
111 1 0.750022 0.625018 0.125004
112 1 0.875025 0.625018 0.125004
113 1 1 0.750022 0.125004
114 1 0.125004 0.750022 0.125004
115 1 0.250007 0.750022 0.125004
116 1 0.375011 0.750022 0.125004
117 1 0.500014 0.750022 0.125004
118 1 0.625018 0.750022 0.125004
119 1 0.750022 0.750022 0.125004
120 1 0.875025 0.750022 0.125004
121 1 1 0.875025 0.125004
122 1 0.125004 0.875025 0.125004
123 1 0.250007 0.875025 0.125004
124 1 0.375011 0.875025 0.125004
125 1 0.500014 0.875025 0.125004
126 1 0.625018 0.875025 0.125004
127 1 0.750022 0.875025 0.125004
128 1 0.875025 0.875025 0.125004
129 1 1 1 0.250007
130 1 0.125004 1 0.250007
131 1 0.250007 1 0.250007
132 1 0.375011 1 0.250007
133 1 0.500014 1 0.250007
134 1 0.625018 1 0.250007
135 1 0.750022 1 0.250007
136 1 0.875025 1 0.250007
137 1 1 0.125004 0.250007
138 1 0.125004 0.125004 0.250007
139 1 0.250007 0.125004 0.250007
140 1 0.375011 0.125004 0.250007
141 1 0.500014 0.125004 0.250007
142 1 0.625018 0.125004 0.250007
143 1 0.750022 0.125004 0.250007
144 1 0.875025 0.125004 0.250007
145 1 1 0.250007 0.250007
146 1 0.125004 0.250007 0.250007
147 1 0.250007 0.250007 0.250007
148 1 0.375011 0.250007 0.250007
149 1 0.500014 0.250007 0.250007
150 1 0.625018 0.250007 0.250007
151 1 0.750022 0.250007 0.250007
152 1 0.875025 0.250007 0.250007
153 1 1 0.375011 0.250007
154 1 0.125004 0.375011 0.250007
155 1 0.250007 0.375011 0.250007
156 1 0.375011 0.375011 0.250007
157 1 0.500014 0.375011 0.250007
158 1 0.625018 0.375011 0.250007
159 1 0.750022 0.375011 0.250007
160 1 0.875025 0.375011 0.250007
161 1 1 0.500014 0.250007
162 1 0.125004 0.500014 0.250007
163 1 0.250007 0.500014 0.250007
164 1 0.375011 0.500014 0.250007
165 1 0.500014 0.500014 0.250007
166 1 0.625018 0.500014 0.250007
167 1 0.750022 0.500014 0.250007
168 1 0.875025 0.500014 0.250007
169 1 1 0.625018 0.250007
170 1 0.125004 0.625018 0.250007
171 1 0.250007 0.625018 0.250007
172 1 0.375011 0.625018 0.250007
173 1 0.500014 0.625018 0.250007
174 1 0.625018 0.625018 0.250007
175 1 0.750022 0.625018 0.250007
176 1 0.875025 0.625018 0.250007
177 1 1 0.750022 0.250007
178 1 0.125004 0.750022 0.250007
179 1 0.250007 0.750022 0.250007
180 1 0.375011 0.750022 0.250007
181 1 0.500014 0.750022 0.250007
182 1 0.625018 0.750022 0.250007
183 1 0.750022 0.750022 0.250007
184 1 0.875025 0.750022 0.250007
185 1 1 0.875025 0.250007
186 1 0.125004 0.875025 0.250007
187 1 0.250007 0.875025 0.250007
188 1 0.375011 0.875025 0.250007
189 1 0.500014 0.875025 0.250007
190 1 0.625018 0.875025 0.250007
191 1 0.750022 0.875025 0.250007
192 1 0.875025 0.875025 0.250007
193 1 1 1 0.375011
194 1 0.125004 1 0.375011
195 1 0.250007 1 0.375011
196 1 0.375011 1 0.375011
197 1 0.500014 1 0.375011
198 1 0.625018 1 0.375011
199 1 0.750022 1 0.375011
200 1 0.875025 1 0.375011
201 1 1 0.125004 0.375011
202 1 0.125004 0.125004 0.375011
203 1 0.250007 0.125004 0.375011
204 1 0.375011 0.125004 0.375011
205 1 0.500014 0.125004 0.375011
206 1 0.625018 0.125004 0.375011
207 1 0.750022 0.125004 0.375011
208 1 0.875025 0.125004 0.375011
209 1 1 0.250007 0.375011
210 1 0.125004 0.250007 0.375011
211 1 0.250007 0.250007 0.375011
212 1 0.375011 0.250007 0.375011
213 1 0.500014 0.250007 0.375011
214 1 0.625018 0.250007 0.375011
215 1 0.750022 0.250007 0.375011
216 1 0.875025 0.250007 0.375011
217 1 1 0.375011 0.375011
218 1 0.125004 0.375011 0.375011
219 1 0.250007 0.375011 0.375011
220 1 0.375011 0.375011 0.375011
221 1 0.500014 0.375011 0.375011
222 1 0.625018 0.375011 0.375011
223 1 0.750022 0.375011 0.375011
224 1 0.875025 0.375011 0.375011
225 1 1 0.500014 0.375011
226 1 0.125004 0.500014 0.375011
227 1 0.250007 0.500014 0.375011
228 1 0.375011 0.500014 0.375011
229 1 0.500014 0.500014 0.375011
230 1 0.625018 0.500014 0.375011
231 1 0.750022 0.500014 0.375011
232 1 0.875025 0.500014 0.375011
233 1 1 0.625018 0.375011
234 1 0.125004 0.625018 0.375011
235 1 0.250007 0.625018 0.375011
236 1 0.375011 0.625018 0.375011
237 1 0.500014 0.625018 0.375011
238 1 0.625018 0.625018 0.375011
239 1 0.750022 0.625018 0.375011
240 1 0.875025 0.625018 0.375011
241 1 1 0.750022 0.375011
242 1 0.125004 0.750022 0.375011
243 1 0.250007 0.750022 0.375011
244 1 0.375011 0.750022 0.375011
245 1 0.500014 0.750022 0.375011
246 1 0.625018 0.750022 0.375011
247 1 0.750022 0.750022 0.375011
248 1 0.875025 0.750022 0.375011
249 1 1 0.875025 0.375011
250 1 0.125004 0.875025 0.375011
251 1 0.250007 0.875025 0.375011
252 1 0.375011 0.875025 0.375011
253 1 0.500014 0.875025 0.375011
254 1 0.625018 0.875025 0.375011
255 1 0.750022 0.875025 0.375011
256 1 0.875025 0.875025 0.375011
257 1 1 1 0.500014
258 1 0.125004 1 0.500014
259 1 0.250007 1 0.500014
260 1 0.375011 1 0.500014
261 1 0.500014 1 0.500014
262 1 0.625018 1 0.500014
263 1 0.750022 1 0.500014
264 1 0.875025 1 0.500014
265 1 1 0.125004 0.500014
266 1 0.125004 0.125004 0.500014
267 1 0.250007 0.125004 0.500014
268 1 0.375011 0.125004 0.500014
269 1 0.500014 0.125004 0.500014
270 1 0.625018 0.125004 0.500014
271 1 0.750022 0.125004 0.500014
272 1 0.875025 0.125004 0.500014
273 1 1 0.250007 0.500014
274 1 0.125004 0.250007 0.500014
275 1 0.250007 0.250007 0.500014
276 1 0.375011 0.250007 0.500014
277 1 0.500014 0.250007 0.500014
278 1 0.625018 0.250007 0.500014
279 1 0.750022 0.250007 0.500014
280 1 0.875025 0.250007 0.500014
281 1 1 0.375011 0.500014
282 1 0.125004 0.375011 0.500014
283 1 0.250007 0.375011 0.500014
284 1 0.375011 0.375011 0.500014
285 1 0.500014 0.375011 0.500014
286 1 0.625018 0.375011 0.500014
287 1 0.750022 0.375011 0.500014
288 1 0.875025 0.375011 0.500014
289 1 1 0.500014 0.500014
290 1 0.125004 0.500014 0.500014
291 1 0.250007 0.500014 0.500014
292 1 0.375011 0.500014 0.500014
293 1 0.500014 0.500014 0.500014
294 1 0.625018 0.500014 0.500014
295 1 0.750022 0.500014 0.500014
296 1 0.875025 0.500014 0.500014
297 1 1 0.625018 0.500014
298 1 0.125004 0.625018 0.500014
299 1 0.250007 0.625018 0.500014
300 1 0.375011 0.625018 0.500014
301 1 0.500014 0.625018 0.500014
302 1 0.625018 0.625018 0.500014
303 1 0.750022 0.625018 0.500014
304 1 0.875025 0.625018 0.500014
305 1 1 0.750022 0.500014
306 1 0.125004 0.750022 0.500014
307 1 0.250007 0.750022 0.500014
308 1 0.375011 0.750022 0.500014
309 1 0.500014 0.750022 0.500014
310 1 0.625018 0.750022 0.500014
311 1 0.750022 0.750022 0.500014
312 1 0.875025 0.750022 0.500014
313 1 1 0.875025 0.500014
314 1 0.125004 0.875025 0.500014
315 1 0.250007 0.875025 0.500014
316 1 0.375011 0.875025 0.500014
317 1 0.500014 0.875025 0.500014
318 1 0.625018 0.875025 0.500014
319 1 0.750022 0.875025 0.500014
320 1 0.875025 0.875025 0.500014
321 1 1 1 0.625018
322 1 0.125004 1 0.625018
323 1 0.250007 1 0.625018
324 1 0.375011 1 0.625018
325 1 0.500014 1 0.625018
326 1 0.625018 1 0.625018
327 1 0.750022 1 0.625018
328 1 0.875025 1 0.625018
329 1 1 0.125004 0.625018
330 1 0.125004 0.125004 0.625018
331 1 0.250007 0.125004 0.625018
332 1 0.375011 0.125004 0.625018
333 1 0.500014 0.125004 0.625018
334 1 0.625018 0.125004 0.625018
335 1 0.750022 0.125004 0.625018
336 1 0.875025 0.125004 0.625018
337 1 1 0.250007 0.625018
338 1 0.125004 0.250007 0.625018
339 1 0.250007 0.250007 0.625018
340 1 0.375011 0.250007 0.625018
341 1 0.500014 0.250007 0.625018
342 1 0.625018 0.250007 0.625018
343 1 0.750022 0.250007 0.625018
344 1 0.875025 0.250007 0.625018
345 1 1 0.375011 0.625018
346 1 0.125004 0.375011 0.625018
347 1 0.250007 0.375011 0.625018
348 1 0.375011 0.375011 0.625018
349 1 0.500014 0.375011 0.625018
350 1 0.625018 0.375011 0.625018
351 1 0.750022 0.375011 0.625018
352 1 0.875025 0.375011 0.625018
353 1 1 0.500014 0.625018
354 1 0.125004 0.500014 0.625018
355 1 0.250007 0.500014 0.625018
356 1 0.375011 0.500014 0.625018
357 1 0.500014 0.500014 0.625018
358 1 0.625018 0.500014 0.625018
359 1 0.750022 0.500014 0.625018
360 1 0.875025 0.500014 0.625018
361 1 1 0.625018 0.625018
362 1 0.125004 0.625018 0.625018
363 1 0.250007 0.625018 0.625018
364 1 0.375011 0.625018 0.625018
365 1 0.500014 0.625018 0.625018
366 1 0.625018 0.625018 0.625018
367 1 0.750022 0.625018 0.625018
368 1 0.875025 0.625018 0.625018
369 1 1 0.750022 0.625018
370 1 0.125004 0.750022 0.625018
371 1 0.250007 0.750022 0.625018
372 1 0.375011 0.750022 0.625018
373 1 0.500014 0.750022 0.625018
374 1 0.625018 0.750022 0.625018
375 1 0.750022 0.750022 0.625018
376 1 0.875025 0.750022 0.625018
377 1 1 0.875025 0.625018
378 1 0.125004 0.875025 0.625018
379 1 0.250007 0.875025 0.625018
380 1 0.375011 0.875025 0.625018
381 1 0.500014 0.875025 0.625018
382 1 0.625018 0.875025 0.625018
383 1 0.750022 0.875025 0.625018
384 1 0.875025 0.875025 0.625018
385 1 1 1 0.750022
386 1 0.125004 1 0.750022
387 1 0.250007 1 0.750022
388 1 0.375011 1 0.750022
389 1 0.500014 1 0.750022
390 1 0.625018 1 0.750022
391 1 0.750022 1 0.750022
392 1 0.875025 1 0.750022
393 1 1 0.125004 0.750022
394 1 0.125004 0.125004 0.750022
395 1 0.250007 0.125004 0.750022
396 1 0.375011 0.125004 0.750022
397 1 0.500014 0.125004 0.750022
398 1 0.625018 0.125004 0.750022
399 1 0.750022 0.125004 0.750022
400 1 0.875025 0.125004 0.750022
401 1 1 0.250007 0.750022
402 1 0.125004 0.250007 0.750022
403 1 0.250007 0.250007 0.750022
404 1 0.375011 0.250007 0.750022
405 1 0.500014 0.250007 0.750022
406 1 0.625018 0.250007 0.750022
407 1 0.750022 0.250007 0.750022
408 1 0.875025 0.250007 0.750022
409 1 1 0.375011 0.750022
410 1 0.125004 0.375011 0.750022
411 1 0.250007 0.375011 0.750022
412 1 0.375011 0.375011 0.750022
413 1 0.500014 0.375011 0.750022
414 1 0.625018 0.375011 0.750022
415 1 0.750022 0.375011 0.750022
416 1 0.875025 0.375011 0.750022
417 1 1 0.500014 0.750022
418 1 0.125004 0.500014 0.750022
419 1 0.250007 0.500014 0.750022
420 1 0.375011 0.500014 0.750022
421 1 0.500014 0.500014 0.750022
422 1 0.625018 0.500014 0.750022
423 1 0.750022 0.500014 0.750022
424 1 0.875025 0.500014 0.750022
425 1 1 0.625018 0.750022
426 1 0.125004 0.625018 0.750022
427 1 0.250007 0.625018 0.750022
428 1 0.375011 0.625018 0.750022
429 1 0.500014 0.625018 0.750022
430 1 0.625018 0.625018 0.750022
431 1 0.750022 0.625018 0.750022
432 1 0.875025 0.625018 0.750022
433 1 1 0.750022 0.750022
434 1 0.125004 0.750022 0.750022
435 1 0.250007 0.750022 0.750022
436 1 0.375011 0.750022 0.750022
437 1 0.500014 0.750022 0.750022
438 1 0.625018 0.750022 0.750022
439 1 0.750022 0.750022 0.750022
440 1 0.875025 0.750022 0.750022
441 1 1 0.875025 0.750022
442 1 0.125004 0.875025 0.750022
443 1 0.250007 0.875025 0.750022
444 1 0.375011 0.875025 0.750022
445 1 0.500014 0.875025 0.750022
446 1 0.625018 0.875025 0.750022
447 1 0.750022 0.875025 0.750022
448 1 0.875025 0.875025 0.750022
449 1 1 1 0.875025
450 1 0.125004 1 0.875025
451 1 0.250007 1 0.875025
452 1 0.375011 1 0.875025
453 1 0.500014 1 0.875025
454 1 0.625018 1 0.875025
455 1 0.750022 1 0.875025
456 1 0.875025 1 0.875025
457 1 1 0.125004 0.875025
458 1 0.125004 0.125004 0.875025
459 1 0.250007 0.125004 0.875025
460 1 0.375011 0.125004 0.875025
461 1 0.500014 0.125004 0.875025
462 1 0.625018 0.125004 0.875025
463 1 0.750022 0.125004 0.875025
464 1 0.875025 0.125004 0.875025
465 1 1 0.250007 0.875025
466 1 0.125004 0.250007 0.875025
467 1 0.250007 0.250007 0.875025
468 1 0.375011 0.250007 0.875025
469 1 0.500014 0.250007 0.875025
470 1 0.625018 0.250007 0.875025
471 1 0.750022 0.250007 0.875025
472 1 0.875025 0.250007 0.875025
473 1 1 0.375011 0.875025
474 1 0.125004 0.375011 0.875025
475 1 0.250007 0.375011 0.875025
476 1 0.375011 0.375011 0.875025
477 1 0.500014 0.375011 0.875025
478 1 0.625018 0.375011 0.875025
479 1 0.750022 0.375011 0.875025
480 1 0.875025 0.375011 0.875025
481 1 1 0.500014 0.875025
482 1 0.125004 0.500014 0.875025
483 1 0.250007 0.500014 0.875025
484 1 0.375011 0.500014 0.875025
485 1 0.500014 0.500014 0.875025
486 1 0.625018 0.500014 0.875025
487 1 0.750022 0.500014 0.875025
488 1 0.875025 0.500014 0.875025
489 1 1 0.625018 0.875025
490 1 0.125004 0.625018 0.875025
491 1 0.250007 0.625018 0.875025
492 1 0.375011 0.625018 0.875025
493 1 0.500014 0.625018 0.875025
494 1 0.625018 0.625018 0.875025
495 1 0.750022 0.625018 0.875025
496 1 0.875025 0.625018 0.875025
497 1 1 0.750022 0.875025
498 1 0.125004 0.750022 0.875025
499 1 0.250007 0.750022 0.875025
500 1 0.375011 0.750022 0.875025
501 1 0.500014 0.750022 0.875025
502 1 0.625018 0.750022 0.875025
503 1 0.750022 0.750022 0.875025
504 1 0.875025 0.750022 0.875025
505 1 1 0.875025 0.875025
506 1 0.125004 0.875025 0.875025
507 1 0.250007 0.875025 0.875025
508 1 0.375011 0.875025 0.875025
509 1 0.500014 0.875025 0.875025
510 1 0.625018 0.875025 0.875025
511 1 0.750022 0.875025 0.875025
512 1 0.875025 0.875025 0.875025
ITEM: TIMESTEP
50000
ITEM: NUMBER OF ATOMS
512
ITEM: BOX BOUNDS xy xz yz pp pp pp
-8.5144909440151295e-02 4.6483637948173893e+01 1.1642195709366799e+01
-7.3737654583378998e-02 2.6812761670923337e+01 1.1642195709366799e+01
-6.9520525769590336e-02 1.8942105015769933e+01 6.7216248263401530e+00
ITEM: ATOMS id type xs ys zs
1 1 1.00363 0.00307826 0.99086
2 1 0.126171 0.00332058 0.997007
3 1 0.250562 0.997185 0.00403131
4 1 0.38068 0.995209 0.00249905
5 1 0.506187 0.00616577 0.994933
6 1 0.624486 1.00081 0.00182781
7 1 0.747406 -0.00462635 0.0114966
8 1 0.870741 0.00563692 0.00268924
9 1 0.00153695 0.123609 1.00215
10 1 0.127825 0.126722 0.000472486
11 1 0.252311 0.123008 -0.00193063
12 1 0.378352 0.124267 1.00473
13 1 0.497114 0.131077 0.00177637
14 1 0.622233 0.126747 0.000436128
15 1 0.743208 0.120818 1.00413
16 1 0.870254 0.129994 1.00126
17 1 0.999951 0.249851 -0.00516611
18 1 0.125029 0.250806 -0.00652369
19 1 0.249422 0.247692 0.00525178
20 1 0.372858 0.253877 0.0021034
21 1 0.496524 0.248575 0.00671346
22 1 0.623992 0.250392 1.00245
23 1 0.743104 0.255523 0.995671
24 1 0.872436 0.248425 0.00234091
25 1 0.00705921 0.378085 -0.00741759
26 1 0.132892 0.367153 -0.00116022
27 1 0.253576 0.373001 1.00514
28 1 0.37385 0.373107 1.00496
29 1 0.494657 0.374165 -0.00078404
30 1 0.610975 0.38194 1.00029
31 1 0.746549 0.37146 0.996261
32 1 0.877814 0.369763 0.00258452
33 1 1.00513 0.503673 -0.00465089
34 1 0.128377 0.493272 0.998176
35 1 0.250195 0.501675 0.998183
36 1 0.378669 0.489693 1.00314
37 1 0.493289 0.507077 0.998656
38 1 0.621728 0.504814 -0.00356707
39 1 0.746393 0.49415 0.00105002
40 1 0.876576 0.502159 -0.00526639
41 1 0.00216565 0.629912 0.995084
42 1 0.128503 0.621065 -0.00612469
43 1 0.248282 0.620133 0.00185781
44 1 0.373724 0.623534 1.00626
45 1 0.503143 0.627361 1.0023
46 1 0.627324 0.624541 0.000689605
47 1 0.745813 0.624534 0.00325524
48 1 0.87844 0.630517 -0.0035087
49 1 0.00862492 0.748127 0.998168
50 1 0.119049 0.759986 1.0066
51 1 0.256827 0.739132 0.00876385
52 1 0.377929 0.748335 0.00408254
53 1 0.504673 0.748079 1.00989
54 1 0.62531 0.746656 0.0011224
55 1 0.751597 0.749055 0.00435435
56 1 0.879582 0.745113 0.99557
57 1 0.00294286 0.879641 0.996564
58 1 0.127264 0.884476 0.993042
59 1 0.260694 0.871909 0.998816
60 1 0.378472 0.874691 0.0057333
61 1 0.50678 0.874739 0.996081
62 1 0.625817 0.867677 1.01337
63 1 0.76013 0.865393 0.00913386
64 1 0.886642 0.864377 -0.000348126
65 1 1.00687 -0.00396358 0.116162
66 1 0.112428 1.00763 0.127884
67 1 0.239469 1.00312 0.124055
68 1 0.374812 0.0011109 0.122638
69 1 0.498689 1.00203 0.126211
70 1 0.623998 0.998052 0.127364
71 1 0.744044 1.00714 0.130433
72 1 0.882744 0.0058995 0.117377
73 1 -0.00312952 0.133281 0.120494
74 1 0.118613 0.128051 0.122626
75 1 0.247482 0.130792 0.126568
76 1 0.373501 0.132785 0.122602
77 1 0.506986 0.120451 0.126969
78 1 0.619295 0.126699 0.12827
79 1 0.746045 0.127858 0.133121
80 1 0.879515 0.130393 0.117609
81 1 1.00249 0.250078 0.116626
82 1 0.123613 0.248589 0.122521
83 1 0.235585 0.252732 0.132702
84 1 0.37032 0.249486 0.128634
85 1 0.501025 0.250804 0.125212
86 1 0.622739 0.254962 0.119852
87 1 0.750941 0.256774 0.122214
88 1 0.869049 0.25044 0.124662
89 1 -0.0112429 0.375364 0.126739
90 1 0.116305 0.375547 0.12555
91 1 0.24788 0.379454 0.123255
92 1 0.37384 0.361328 0.130323
93 1 0.496685 0.373316 0.123502
94 1 0.628206 0.386214 0.115035
95 1 0.753342 0.377123 0.12555
96 1 0.86937 0.377047 0.124827
97 1 1.00785 0.505123 0.116604
98 1 0.122577 0.504538 0.121518
99 1 0.247096 0.498525 0.128625
100 1 0.366214 0.488862 0.133892
101 1 0.502139 0.507285 0.11725
102 1 0.620318 0.503098 0.123866
103 1 0.755291 0.502996 0.122003
104 1 0.872528 0.503726 0.120005
105 1 1.00591 0.627351 0.117149
106 1 0.123134 0.624698 0.128508
107 1 0.252335 0.614419 0.127319
108 1 0.379692 0.628115 0.120014
109 1 0.498187 0.629352 0.127911
110 1 0.625299 0.623964 0.125089
111 1 0.758652 0.626999 0.116726
112 1 0.877776 0.621811 0.129418
113 1 0.99198 0.751526 0.126038
114 1 0.129725 0.74907 0.130193
115 1 0.254347 0.741625 0.13126
116 1 0.378919 0.752395 0.126365
117 1 0.506375 0.75001 0.128216
118 1 0.6321 0.742851 0.128519
119 1 0.758107 0.743324 0.13134
120 1 0.873977 0.757426 0.124402
121 1 0.00423219 0.87145 0.121415
122 1 0.127772 0.876973 0.126216
123 1 0.244372 0.876916 0.129242
124 1 0.375354 0.866089 0.133909
125 1 0.509242 0.875035 0.122856
126 1 0.634731 0.873925 0.126146
127 1 0.755653 0.877642 0.127384
128 1 0.873333 0.88288 0.124775
129 1 0.996181 0.00125467 0.254549
130 1 0.121766 1.00772 0.256266
131 1 0.24923 1.00374 0.245182
132 1 0.376228 0.995558 0.252466
133 1 0.498575 1.00096 0.254474
134 1 0.625784 0.00229348 0.255201
135 1 0.753189 0.000582816 0.251243
136 1 0.876333 0.00908283 0.236571
137 1 0.997724 0.121166 0.254864
138 1 0.124695 0.12883 0.250943
139 1 0.248817 0.131912 0.251042
140 1 0.372596 0.124513 0.260987
141 1 0.502628 0.127466 0.250053
142 1 0.62564 0.128081 0.250728
143 1 0.743585 0.1346 0.250435
144 1 0.874934 0.132275 0.244833
145 1 0.999477 0.251985 0.251479
146 1 0.12283 0.24528 0.256297
147 1 0.257387 0.257338 0.251287
148 1 0.378055 0.249231 0.251267
149 1 0.505004 0.255106 0.244543
150 1 0.625748 0.255476 0.241806
151 1 0.751073 0.256378 0.251014
152 1 0.878099 0.2532 0.248632
153 1 0.00395698 0.373356 0.252278
154 1 0.12596 0.371363 0.247293
155 1 0.254289 0.378031 0.253701
156 1 0.376916 0.37126 0.251553
157 1 0.496547 0.375273 0.251968
158 1 0.626778 0.37574 0.24849
159 1 0.749643 0.381232 0.248452
160 1 0.871558 0.37625 0.25509
161 1 1.00059 0.500955 0.249742
162 1 0.121054 0.494649 0.256873
163 1 0.248784 0.499275 0.252422
164 1 0.374206 0.499842 0.250043
165 1 0.503724 0.502529 0.243416
166 1 0.62774 0.502132 0.244769
167 1 0.752676 0.49841 0.249881
168 1 0.879547 0.494907 0.250755
169 1 0.993952 0.636703 0.254783
170 1 0.123012 0.628337 0.247102
171 1 0.257418 0.620781 0.249373
172 1 0.380302 0.623728 0.247356
173 1 0.501428 0.626545 0.253921
174 1 0.621474 0.630208 0.254422
175 1 0.751189 0.619772 0.255567
176 1 0.870753 0.628386 0.243094
177 1 1.00334 0.759381 0.253027
178 1 0.127163 0.75123 0.249427
179 1 0.262745 0.749296 0.252658
180 1 0.37921 0.75167 0.256221
181 1 0.503023 0.758103 0.252038
182 1 0.628763 0.749847 0.25017
183 1 0.751971 0.755508 0.245189
184 1 0.874108 0.752939 0.253358
185 1 -0.00477057 0.877722 0.256236
186 1 0.123782 0.876183 0.25383
187 1 0.239898 0.879964 0.25822
188 1 0.378826 0.87622 0.246202
189 1 0.501709 0.873052 0.256819
190 1 0.622804 0.87515 0.249787
191 1 0.748031 0.885332 0.247712
192 1 0.882212 0.877941 0.243906
193 1 0.0070597 0.993772 0.375281
194 1 0.132724 0.991911 0.379129
195 1 0.246034 1.00343 0.372344
196 1 0.368838 0.997848 0.375445
197 1 0.497414 1.00936 0.372098
198 1 0.62963 1.00899 0.370435
199 1 0.747244 0.0110489 0.376211
200 1 0.871444 1.01047 0.374187
201 1 1.00311 0.123289 0.370993
202 1 0.11668 0.122246 0.376985
203 1 0.237017 0.127618 0.380473
204 1 0.370609 0.117663 0.384915
205 1 0.494859 0.124686 0.381921
206 1 0.621347 0.129085 0.37731
207 1 0.745927 0.129794 0.37699
208 1 0.878722 0.125483 0.375504
209 1 0.993439 0.253835 0.374669
210 1 0.122307 0.253739 0.374247
211 1 0.245896 0.244367 0.380189
212 1 0.384487 0.241559 0.371329
213 1 0.502399 0.251041 0.370353
214 1 0.625884 0.254777 0.370412
215 1 0.754241 0.248013 0.376998
216 1 0.868903 0.249823 0.379467
217 1 -0.00324245 0.37882 0.37443
218 1 0.125234 0.372687 0.37774
219 1 0.258481 0.366707 0.374302
220 1 0.380695 0.371676 0.376651
221 1 0.503427 0.372938 0.367743
222 1 0.632139 0.37337 0.372656
223 1 0.752635 0.375291 0.3717
224 1 0.871265 0.373101 0.380277
225 1 -0.00357156 0.501535 0.378532
226 1 0.119096 0.501852 0.374729
227 1 0.250787 0.498005 0.37407
228 1 0.376094 0.50085 0.371654
229 1 0.509052 0.494949 0.369451
230 1 0.626709 0.502866 0.370235
231 1 0.747223 0.498615 0.370495
232 1 0.871833 0.500614 0.377246
233 1 -0.00575802 0.625823 0.382085
234 1 0.127309 0.613654 0.377979
235 1 0.251614 0.629493 0.373701
236 1 0.381801 0.617546 0.373218
237 1 0.502409 0.62691 0.375477
238 1 0.625952 0.624443 0.379716
239 1 0.754186 0.633055 0.365254
240 1 0.875322 0.629146 0.379497
241 1 0.0026235 0.749126 0.37579
242 1 0.133528 0.752645 0.370386
243 1 0.260097 0.742858 0.382881
244 1 0.372735 0.752838 0.384957
245 1 0.494311 0.752706 0.376604
246 1 0.624847 0.75211 0.37406
247 1 0.750621 0.753101 0.376376
248 1 0.87574 0.751864 0.370928
249 1 -0.000582189 0.87678 0.378437
250 1 0.12834 0.874549 0.378634
251 1 0.25454 0.878889 0.368106
252 1 0.371641 0.869107 0.386475
253 1 0.503908 0.876541 0.376397
254 1 0.62375 0.882976 0.377021
255 1 0.754619 0.881907 0.371731
256 1 0.875835 0.889244 0.368816
257 1 1.0048 0.99792 0.500535
258 1 0.124548 1.00297 0.496538
259 1 0.242742 1.00631 0.501254
260 1 0.370732 0.9975 0.507165
261 1 0.500816 1.00026 0.498387
262 1 0.625654 -0.00372482 0.499297
263 1 0.752612 -0.00483511 0.500473
264 1 0.890476 -0.00554989 0.490489
265 1 -0.00627995 0.126132 0.498142
266 1 0.118858 0.126668 0.501504
267 1 0.249141 0.118913 0.502801
268 1 0.368334 0.123946 0.508866
269 1 0.501363 0.126455 0.497428
270 1 0.628956 0.11671 0.500906
271 1 0.757576 0.111454 0.501083
272 1 0.875168 0.122582 0.501821
273 1 0.998254 0.256486 0.492605
274 1 0.127384 0.25074 0.501735
275 1 0.251343 0.253778 0.497329
276 1 0.36885 0.258399 0.492195
277 1 0.498298 0.246685 0.497496
278 1 0.632242 0.238518 0.497898
279 1 0.749119 0.245404 0.501131
280 1 0.871916 0.245657 0.502608
281 1 -0.00927196 0.379451 0.503296
282 1 0.125513 0.382096 0.496384
283 1 0.247348 0.381463 0.498779
284 1 0.379648 0.367217 0.500263
285 1 0.509526 0.366165 0.49021
286 1 0.625645 0.368962 0.496728
287 1 0.748768 0.368703 0.50067
288 1 0.872721 0.379712 0.496447
289 1 -0.0107006 0.502016 0.504034
290 1 0.126522 0.498478 0.501328
291 1 0.260149 0.499878 0.492029
292 1 0.376447 0.50109 0.490532
293 1 0.499585 0.501845 0.489617
294 1 0.616016 0.494766 0.503973
295 1 0.748743 0.502577 0.487658
296 1 0.865119 0.504421 0.503266
297 1 1.00007 0.618709 0.5007
298 1 0.135617 0.62146 0.497832
299 1 0.254352 0.620543 0.4997
300 1 0.371342 0.628957 0.497329
301 1 0.495567 0.62418 0.50234
302 1 0.622555 0.622716 0.501189
303 1 0.741828 0.624439 0.498486
304 1 0.859978 0.631558 0.507766
305 1 -0.00110465 0.742283 0.500102
306 1 0.119486 0.747676 0.50269
307 1 0.24871 0.752275 0.504317
308 1 0.372994 0.74755 0.506684
309 1 0.499624 0.74987 0.499478
310 1 0.620761 0.753959 0.498172
311 1 0.74617 0.761557 0.485804
312 1 0.875268 0.753815 0.487669
313 1 0.00036318 0.867711 0.502412
314 1 0.128732 0.873101 0.505063
315 1 0.257383 0.869893 0.499458
316 1 0.371542 0.872817 0.506036
317 1 0.496136 0.88095 0.492514
318 1 0.613556 0.872861 0.501991
319 1 0.747034 0.875611 0.496203
320 1 0.876855 0.871431 0.498761
321 1 0.985288 0.0044027 0.625485
322 1 0.127179 0.00256096 0.623941
323 1 0.249408 0.995642 0.633221
324 1 0.368541 0.998801 0.630543
325 1 0.496819 -0.00308597 0.623774
326 1 0.626055 -0.00744343 0.631078
327 1 0.744341 -0.00195369 0.625904
328 1 0.86618 -0.0111368 0.635616
329 1 0.00172669 0.119982 0.621877
330 1 0.132596 0.121858 0.623137
331 1 0.250025 0.121759 0.625413
332 1 0.378657 0.128549 0.615119
333 1 0.500166 0.11936 0.627511
334 1 0.621298 0.116511 0.627021
335 1 0.756326 0.121652 0.625109
336 1 0.872316 0.124374 0.629507
337 1 0.00104761 0.240634 0.616844
338 1 0.121695 0.250399 0.62213
339 1 0.255022 0.250441 0.6255
340 1 0.377184 0.245987 0.621348
341 1 0.509808 0.237117 0.618312
342 1 0.622944 0.238818 0.626195
343 1 0.746533 0.246035 0.628016
344 1 0.872302 0.250461 0.62369
345 1 1.00097 0.373883 0.616606
346 1 0.121212 0.369709 0.62453
347 1 0.258416 0.377119 0.615983
348 1 0.384332 0.366124 0.624046
349 1 0.503651 0.371317 0.620637
350 1 0.626071 0.362011 0.623128
351 1 0.744083 0.37689 0.623374
352 1 0.879972 0.373385 0.620801
353 1 0.00179243 0.496571 0.629734
354 1 0.134596 0.496485 0.616535
355 1 0.256956 0.492236 0.623782
356 1 0.379676 0.500217 0.61543
357 1 0.495912 0.504878 0.624191
358 1 0.624373 0.49625 0.626691
359 1 0.746921 0.500112 0.62544
360 1 0.875367 0.502921 0.623857
361 1 1.00144 0.618227 0.622906
362 1 0.11922 0.625277 0.622856
363 1 0.245881 0.621803 0.625753
364 1 0.36584 0.62658 0.625254
365 1 0.49137 0.626288 0.623857
366 1 0.612148 0.631849 0.621621
367 1 0.741356 0.622977 0.623242
368 1 0.87834 0.625916 0.620128
369 1 0.999233 0.75245 0.62227
370 1 0.120069 0.753365 0.62894
371 1 0.24899 0.74986 0.625163
372 1 0.370521 0.747693 0.632278
373 1 0.491146 0.758864 0.631064
374 1 0.618477 0.74128 0.637263
375 1 0.751738 0.744083 0.618458
376 1 0.879135 0.750337 0.618426
377 1 1.00132 0.872029 0.62734
378 1 0.123854 0.872697 0.624513
379 1 0.251094 0.872172 0.626318
380 1 0.370142 0.87443 0.62463
381 1 0.49677 0.883566 0.619094
382 1 0.621151 0.870693 0.626336
383 1 0.737308 0.871253 0.632217
384 1 0.86969 0.868436 0.631831
385 1 0.997119 -0.00531325 0.752298
386 1 0.12415 -0.00171624 0.75279
387 1 0.245109 1.00668 0.750415
388 1 0.372498 1.00167 0.752494
389 1 0.501295 -0.00528983 0.752006
390 1 0.61725 0.00147715 0.752686
391 1 0.745634 -0.00793934 0.759012
392 1 0.879972 0.994496 0.751534
393 1 -0.006602 0.119256 0.751288
394 1 0.115273 0.131743 0.750672
395 1 0.249 0.124459 0.743682