LAMMPS (22 Dec 2022)
OMP_NUM_THREADS environment is not set. Defaulting to 1 thread. (src/comm.cpp:98)
  using 1 OpenMP thread(s) per MPI task
package omp 4
set 4 OpenMP thread(s) per MPI task
using multi-threaded neighbor list subroutines

# INITIALIZATION
dimension 3
boundary p p p
units metal
atom_style atomic
atom_modify map array

# ATOM DEFINITION
read_data	dataAg.pos
Reading data file ...
  triclinic box = (0 0 0) to (23.114102 20.017399 18.872584) with tilt (11.557051 11.557051 6.6724664)
WARNING: Triclinic box skew is large. LAMMPS will run inefficiently. (src/domain.cpp:220)
  1 by 1 by 1 MPI processor grid
  reading atoms ...
  512 atoms
  read_data CPU = 0.011 seconds

# DEFINE INTERATOMIC POTENTIAL
pair_style eam/alloy
pair_coeff * * Ag.eam.alloy Ag
neigh_modify delay 10 check yes

#Langevin random seed
variable r equal 57085
variable t equal 300
variable d equal 1

# initialize
velocity all create $t 28459 rot yes dist gaussian mom yes
velocity all create 300 28459 rot yes dist gaussian mom yes
reset_timestep 0

# fixes
fix      1 all npt temp $t $t $d iso 1. 1. 1. pchain 8 drag 1.0
fix      1 all npt temp 300 $t $d iso 1. 1. 1. pchain 8 drag 1.0
fix      1 all npt temp 300 300 $d iso 1. 1. 1. pchain 8 drag 1.0
fix      1 all npt temp 300 300 1 iso 1. 1. 1. pchain 8 drag 1.0
fix      2 all phonon 10 50000 500000 map.in AgPhonon

#
timestep 2e-3

# output
#                    1    2    3  4  5     6   7  8  9  10 11 12
thermo_style  custom step temp pe ke press vol lx ly lz xy xz yz
thermo  100

restart 2000000 restart.one restart.two

dump    	3 all atom 50000 dump_LJ_ANA.lammpstrj

# execution
run 	 2000000

CITE-CITE-CITE-CITE-CITE-CITE-CITE-CITE-CITE-CITE-CITE-CITE-CITE

Your simulation uses code contributions which should be cited:

- fix phonon command: doi:10.1016/j.cpc.2011.04.019

@Article{Kong11,
 author = {L. T. Kong},
 title = {Phonon Dispersion Measured Directly from Molecular Dynamics Simulations},
 journal = {Comput.\ Phys.\ Commun.},
 year =    2011,
 volume =  182,
 pages =   {2201--2207}
}

CITE-CITE-CITE-CITE-CITE-CITE-CITE-CITE-CITE-CITE-CITE-CITE-CITE

No /omp style for force computation currently active
Neighbor list info ...
  update: every = 1 steps, delay = 10 steps, check = yes
  max neighbors/atom: 2000, page size: 100000
  master list distance cutoff = 7.995011
  ghost atom cutoff = 7.995011
  binsize = 3.9975055, bins = 12 7 5
  1 neighbor lists, perpetual/occasional/extra = 1 0 0
  (1) pair eam/alloy, perpetual
      attributes: half, newton on, omp
      pair build: half/bin/newton/tri/omp
      stencil: half/bin/3d/tri
      bin: standard
Per MPI rank memory allocation (min/avg/max) = 7.51 | 7.51 | 7.51 Mbytes
   Step          Temp          PotEng         KinEng         Press          Volume           Lx             Ly             Lz             Xy             Xz             Yz      
         0   300           -1459.1758      19.81558       5469.5866      8732.0466      23.114102      20.017399      18.872584      11.557051      11.557051      6.6724664    
       100   174.03145     -1451.0647      11.495114      10263.665      8737.2888      23.118726      20.021404      18.87636       11.559363      11.559363      6.6738014    
       200   146.5137      -1449.1344      9.6775133      2209.8619      8815.4143      23.187428      20.080902      18.932455      11.593714      11.593714      6.6936339    
       300   151.76704     -1449.0395      10.024506     -2740.4576      8858.3375      23.225001      20.113441      18.963134      11.612501      11.612501      6.7044803    
       400   141.56932     -1447.9633      9.3509275     -944.01985      8851.0239      23.218608      20.107904      18.957913      11.609304      11.609304      6.7026347    
       500   163.08813     -1448.9942      10.772287     -1828.8974      8851.3975      23.218934      20.108187      18.95818       11.609467      11.609467      6.702729     
       600   169.52096     -1449.0166      11.197187     -534.62717      8841.8878      23.210616      20.100983      18.951388      11.605308      11.605308      6.7003277    
       700   164.46085     -1448.2558      10.862957      801.28484      8836.1597      23.205603      20.096642      18.947295      11.602801      11.602801      6.6988805    
       800   164.27014     -1447.8174      10.850361     -694.10512      8851.3716      23.218912      20.108167      18.958162      11.609456      11.609456      6.7027225    
       900   172.01665     -1447.8991      11.362032     -1441.3197      8857.1518      23.223965      20.112544      18.962287      11.611982      11.611982      6.7041812    
      1000   180.85259     -1448.0505      11.945663      833.31462      8838.1186      23.207318      20.098127      18.948695      11.603659      11.603659      6.6993755    
      1100   192.48552     -1448.3934      12.714041      177.04711      8841.4987      23.210276      20.100688      18.95111       11.605138      11.605138      6.7002294    
      1200   184.64441     -1447.4405      12.19612       1454.1848      8837.8065      23.207044      20.09789       18.948472      11.603522      11.603522      6.6992966    
      1300   191.07886     -1447.4419      12.621128     -750.33536      8857.1759      23.223986      20.112562      18.962305      11.611993      11.611993      6.7041873    
      1400   173.1051      -1445.8219      11.433927     -543.87487      8865.9499      23.231652      20.119201      18.968564      11.615826      11.615826      6.7064003    
      1500   189.74227     -1446.4825      12.532844     -921.43602      8865.7036      23.231437      20.119015      18.968388      11.615718      11.615718      6.7063382    
      1600   203.52241     -1446.9685      13.443049      180.19599      8854.5948      23.22173       20.110608      18.960463      11.610865      11.610865      6.703536     
      1700   191.20561     -1445.7372      12.629501      1504.4467      8852.0328      23.21949       20.108668      18.958634      11.609745      11.609745      6.7028893    
      1800   207.29733     -1446.3623      13.69239       916.15027      8853.3388      23.220632      20.109657      18.959566      11.610316      11.610316      6.703219     
      1900   204.01865     -1445.7261      13.475826      422.20214      8862.124       23.22831       20.116306      18.965835      11.614155      11.614155      6.7054355    
      2000   215.58497     -1446.0685      14.239804     -1518.7616      8873.8322      23.238535      20.125161      18.974184      11.619267      11.619267      6.7083871    
      2100   228.05257     -1446.4694      15.063313     -119.05474      8861.5146      23.227777      20.115845      18.9654        11.613889      11.613889      6.7052817    
      2200   215.42537     -1445.2283      14.229262      1350.4483      8858.7033      23.225321      20.113718      18.963395      11.61266       11.61266       6.7045726    
      2300   213.04544     -1444.6599      14.072064      169.11055      8872.4102      23.237293      20.124086      18.97317       11.618647      11.618647      6.7080288    
      2400   215.56545     -1444.4168      14.238515      335.18676      8873.7876      23.238496      20.125128      18.974152      11.619248      11.619248      6.7083759    
      2500   216.77617     -1444.0979      14.318485     -617.79687      8883.325       23.246818      20.132335      18.980947      11.623409      11.623409      6.7107784    
      2600   225.06516     -1444.2498      14.865989     -1693.5871      8891.9378      23.254329      20.138839      18.987079      11.627164      11.627164      6.7129465    
      2700   232.12474     -1444.3317      15.332288     -265.63858      8880.1097      23.244013      20.129906      18.978657      11.622007      11.622007      6.7099686    
      2800   236.27428     -1444.2188      15.606373     -291.99413      8879.8381      23.243776      20.129701      18.978463      11.621888      11.621888      6.7099002    
      2900   235.57732     -1443.7926      15.560338     -1026.5008      8890.1044      23.25273       20.137455      18.985774      11.626365      11.626365      6.7124851    
      3000   241.79443     -1443.8327      15.97099      -323.91916      8884.3115      23.247679      20.13308       18.98165       11.623839      11.623839      6.7110268    
      3100   248.1216      -1443.8827      16.388912      1320.3089      8871.318       23.23634       20.123261      18.972392      11.61817       11.61817       6.7077535    
      3200   241.19527     -1443.0713      15.931414      1208.3774      8878.8181      23.242886      20.12893       18.977737      11.621443      11.621443      6.7096433    
      3300   252.24147     -1443.4401      16.661037     -353.73689      8889.0943      23.25185       20.136693      18.985055      11.625925      11.625925      6.7122308    
      3400   253.80174     -1443.2009      16.764096      935.26844      8880.5561      23.244403      20.130243      18.978975      11.622201      11.622201      6.7100811    
      3500   251.46295     -1442.7139      16.609614     -1234.0776      8900.5566      23.26184       20.145344      18.993212      11.63092       11.63092       6.7151147    
      3600   252.85475     -1442.4741      16.701545     -914.78544      8900.969       23.262199      20.145655      18.993505      11.631099      11.631099      6.7152184    
      3700   259.726       -1442.6071      17.155404      710.11716      8889.3778      23.252097      20.136907      18.985257      11.626048      11.626048      6.7123022    
      3800   262.70808     -1442.4977      17.352377     -542.91843      8896.4327      23.258246      20.142232      18.990278      11.629123      11.629123      6.7140774    
      3900   261.63631     -1442.12        17.281584      125.16443      8896.0557      23.257918      20.141948      18.99001       11.628959      11.628959      6.7139826    
      4000   260.42896     -1441.744       17.201837     -883.78054      8907.8886      23.268225      20.150874      18.998426      11.634113      11.634113      6.7169581    
      4100   262.28635     -1441.5837      17.324521     -378.80072      8904.9078      23.26563       20.148626      18.996307      11.632815      11.632815      6.7162088    
      4200   263.53416     -1441.3896      17.406941      1464.3129      8891.5953      23.25403       20.138581      18.986836      11.627015      11.627015      6.7128603    
      4300   272.85753     -1441.7395      18.022767      526.67755      8895.8097      23.257704      20.141762      18.989835      11.628852      11.628852      6.7139207    
      4400   268.1109      -1441.1685      17.709244      1870.3495      8889.3304      23.252056      20.136871      18.985223      11.626028      11.626028      6.7122903    
      4500   271.06814     -1441.1237      17.904575      125.55818      8903.2887      23.26422       20.147405      18.995155      11.63211       11.63211       6.7158017    
      4600   264.98397     -1440.4774      17.502704      580.00792      8905.3953      23.266054      20.148994      18.996653      11.633027      11.633027      6.7163313    
      4700   270.93546     -1440.6407      17.895811     -937.36398      8915.4885      23.274841      20.156603      19.003827      11.63742       11.63742       6.7188678    
      4800   272.978       -1440.5621      18.030725     -1174.922       8919.4847      23.278318      20.159615      19.006666      11.639159      11.639159      6.7198715    
      4900   272.80946     -1440.3399      18.019593     -227.38911      8913.1891      23.27284       20.15487       19.002194      11.63642       11.63642       6.7182901    
      5000   280.03392     -1440.6137      18.496782      1065.4597      8901.5824      23.262733      20.146118      18.993942      11.631367      11.631367      6.7153726    
      5100   289.41309     -1441.0455      19.116294     -619.78292      8911.3307      23.271222      20.153469      19.000873      11.635611      11.635611      6.7178232    
      5200   292.35846     -1441.0602      19.310842     -308.64832      8909.6874      23.269791      20.152231      18.999705      11.634896      11.634896      6.7174102    
      5300   292.56973     -1440.9066      19.324797     -653.31524      8911.8743      23.271695      20.153879      19.001259      11.635848      11.635848      6.7179597    
      5400   289.53882     -1440.5428      19.124599      750.01511      8903.6022      23.264493      20.147642      18.995378      11.632246      11.632246      6.7158805    
      5500   303.55925     -1441.3162      20.050676      379.17598      8903.8247      23.264686      20.147809      18.995536      11.632343      11.632343      6.7159365    
      5600   296.0066      -1440.6769      19.551808     -185.00148      8912.4189      23.272169      20.15429       19.001646      11.636085      11.636085      6.7180966    
      5700   290.77713     -1440.2021      19.206392      161.33447      8912.2617      23.272032      20.154171      19.001534      11.636016      11.636016      6.7180571    
      5800   288.09003     -1439.9069      19.028904     -822.01755      8921.2006      23.27981       20.160907      19.007885      11.639905      11.639905      6.7203024    
      5900   293.60907     -1440.1589      19.393447     -1535.4802      8926.5669      23.284477      20.164949      19.011696      11.642239      11.642239      6.7216496    
      6000   291.6353      -1439.9264      19.263075     -21.225983      8916.4647      23.27569       20.157339      19.004521      11.637845      11.637845      6.719113     
      6100   293.0509      -1439.9331      19.356579     -1499.1765      8926.2145      23.284171      20.164683      19.011445      11.642085      11.642085      6.7215611    
      6200   293.90851     -1439.909       19.413225      805.87142      8910.0368      23.270096      20.152494      18.999953      11.635048      11.635048      6.717498     
      6300   306.99904     -1440.6962      20.27788       318.1305       8908.3386      23.268617      20.151214      18.998746      11.634309      11.634309      6.7170712    
      6400   308.52608     -1440.7329      20.378744     -1623.5203      8922.0387      23.280539      20.161539      19.00848       11.64027       11.64027       6.7205128    
      6500   306.09566     -1440.5144      20.21821       329.84356      8909.1495      23.269323      20.151825      18.999322      11.634662      11.634662      6.717275     
      6600   295.86618     -1439.8111      19.542533      1497.9105      8904.5905      23.265353      20.148387      18.996081      11.632677      11.632677      6.716129     
      6700   301.5671      -1440.1543      19.91909      -987.71603      8922.8293      23.281227      20.162134      19.009042      11.640613      11.640613      6.7207113    
      6800   300.49831     -1440.0237      19.848495     -203.23558      8918.6196      23.277565      20.158963      19.006052      11.638783      11.638783      6.7196542    
      6900   299.26465     -1439.9182      19.767009     -443.95338      8920.482       23.279185      20.160366      19.007375      11.639593      11.639593      6.7201219    
      7000   293.33301     -1439.5099      19.375213      307.29658      8916.8614      23.276035      20.157638      19.004803      11.638018      11.638018      6.7192126    
      7100   294.85769     -1439.5842      19.475921      2433.726       8898.9632      23.260451      20.144142      18.992079      11.630226      11.630226      6.7147139    
      7200   309.69192     -1440.5553      20.455751     -1267.1242      8921.9671      23.280477      20.161485      19.008429      11.640239      11.640239      6.7204948    
      7300   289.81384     -1439.2284      19.142765      342.07987      8918.8363      23.277754      20.159126      19.006206      11.638877      11.638877      6.7197087    
      7400   293.69213     -1439.4849      19.398933     -1991.5692      8935.7279      23.29244       20.171845      19.018197      11.64622       11.64622       6.7239482    
      7500   285.78061     -1438.9711      18.876362     -561.26557      8927.9672      23.285695      20.166003      19.01269       11.642847      11.642847      6.722001     
      7600   280.20791     -1438.6026      18.508275      1728.4199      8910.6228      23.270606      20.152936      19.00037       11.635303      11.635303      6.7176453    
      7700   291.54682     -1439.3576      19.257232     -184.03758      8921.6977      23.280243      20.161282      19.008238      11.640121      11.640121      6.7204272    
      7800   288.62878     -1439.1602      19.064489      803.06115      8916.0473      23.275327      20.157024      19.004224      11.637663      11.637663      6.7190081    
      7900   296.81227     -1439.6998      19.605024      343.37045      8915.2643      23.274646      20.156434      19.003668      11.637323      11.637323      6.7188114    
      8000   310.82207     -1440.6218      20.530399     -2014.5041      8928.0968      23.285807      20.166101      19.012782      11.642904      11.642904      6.7220336    
      8100   298.1506      -1439.7977      19.693423      668.43817      8911.5495      23.271413      20.153634      19.001028      11.635706      11.635706      6.7178781    
      8200   302.68654     -1440.0858      19.993031      1435.3726      8903.7218      23.264597      20.147732      18.995463      11.632298      11.632298      6.7159106    
      8300   312.22253     -1440.7108      20.622902      1094.6619      8902.0253      23.263119      20.146452      18.994257      11.63156       11.63156       6.715484     
      8400   290.45066     -1439.2794      19.184828      3134.0368      8895.2238      23.257193      20.14132       18.989418      11.628596      11.628596      6.7137733    
      8500   284.18278     -1438.8783      18.770822      2787.3658      8900.9164      23.262153      20.145616      18.993468      11.631077      11.631077      6.7152052    
      8600   295.42724     -1439.6257      19.51354      -573.42885      8923.2163      23.281564      20.162425      19.009317      11.640782      11.640782      6.7208085    
      8700   293.41508     -1439.484       19.380633     -1328.549       8930.5356      23.287927      20.167937      19.014513      11.643964      11.643964      6.7226456    
      8800   300.08837     -1439.9181      19.821417     -1284.3381      8926.7764      23.284659      20.165107      19.011844      11.64233       11.64233       6.7217022    
      8900   295.61376     -1439.624       19.52586       485.89947      8913.8351      23.273402      20.155357      19.002653      11.636701      11.636701      6.7184524    
      9000   298.87482     -1439.8391      19.74126       243.28391      8915.8967      23.275196      20.156911      19.004117      11.637598      11.637598      6.7189703    
      9100   298.01242     -1439.7796      19.684297      53.585426      8917.9294      23.276965      20.158443      19.005562      11.638482      11.638482      6.7194809    
      9200   286.50819     -1439.0294      18.92442       270.48206      8920.29        23.279018      20.160221      19.007238      11.639509      11.639509      6.7200737    
      9300   295.0229      -1439.5959      19.486833     -187.60649      8919.9367      23.278711      20.159955      19.006987      11.639355      11.639355      6.719985     
      9400   306.70416     -1440.3688      20.258403     -1284.2317      8922.8087      23.281209      20.162118      19.009027      11.640605      11.640605      6.7207061    
      9500   313.43273     -1440.8084      20.702838     -1226.5535      8918.5528      23.277507      20.158912      19.006004      11.638753      11.638753      6.7196374    
      9600   309.78116     -1440.5704      20.461645     -687.60352      8917.3059      23.276422      20.157973      19.005119      11.638211      11.638211      6.7193243    
      9700   308.47546     -1440.48        20.375401      560.08459      8907.3167      23.267727      20.150443      18.998019      11.633864      11.633864      6.7168143    
      9800   303.32331     -1440.1417      20.035092     -1263.6611      8925.9865      23.283972      20.164512      19.011283      11.641986      11.641986      6.7215039    
      9900   295.09481     -1439.6024      19.491583     -3278.1243      8944.0397      23.29966       20.178097      19.024092      11.64983       11.64983       6.7260324    
     10000   292.41145     -1439.4442      19.314342     -556.25187      8923.9919      23.282238      20.16301       19.009867      11.641119      11.641119      6.7210032    
     10100   312.1864      -1440.7383      20.620516     -432.7016       8914.412       23.273904      20.155792      19.003062      11.636952      11.636952      6.7185973    
     10200   311.14731     -1440.6757      20.551881      383.27946      8907.0264      23.267475      20.150224      18.997813      11.633737      11.633737      6.7167414    
     10300   306.38458     -1440.3601      20.237294      1125.5527      8902.6786      23.263688      20.146945      18.994721      11.631844      11.631844      6.7156483    
     10400   303.28463     -1440.1607      20.032536      1372.6078      8904.0014      23.26484       20.147943      18.995662      11.63242       11.63242       6.7159809    
     10500   311.43366     -1440.6892      20.570796      87.025345      8911.5243      23.271391      20.153615      19.00101       11.635695      11.635695      6.7178718    
     10600   283.04157     -1438.8271      18.695443      3678.9374      8894.4052      23.256479      20.140702      18.988836      11.62824       11.62824       6.7135673    
     10700   299.29021     -1439.9106      19.768697     -785.61611      8922.7433      23.281152      20.162069      19.008981      11.640576      11.640576      6.7206897    
     10800   295.18861     -1439.6298      19.497778     -1552.9935      8930.7704      23.288131      20.168113      19.014679      11.644066      11.644066      6.7227045    
     10900   300.5937      -1439.979       19.854795     -1392.1429      8928.9964      23.286589      20.166778      19.01342       11.643295      11.643295      6.7222593    
     11000   304.95163     -1440.2712      20.142645     -1985.4749      8929.3973      23.286938      20.16708       19.013705      11.643469      11.643469      6.7223599    
     11100   324.13594     -1441.5539      21.409806      492.14398      8900.938       23.262172      20.145632      18.993483      11.631086      11.631086      6.7152106    
     11200   310.54936     -1440.6489      20.512386      3302.2237      8883.4378      23.246917      20.13242       18.981027      11.623458      11.623458      6.7108068    
     11300   296.32331     -1439.7283      19.572727      2941.9774      8892.0224      23.254403      20.138903      18.98714       11.627201      11.627201      6.7129678    
     11400   303.40399     -1440.2166      20.04042       271.01346      8911.9046      23.271722      20.153902      19.001281      11.635861      11.635861      6.7179673    
     11500   295.43471     -1439.6782      19.514034     -2320.614       8936.5         23.293111      20.172426      19.018745      11.646555      11.646555      6.7241418    
     11600   287.05864     -1439.1046      18.960779     -2651.52        8942.7319      23.298524      20.177114      19.023165      11.649262      11.649262      6.7257045    
     11700   303.7814      -1440.2056      20.065349      70.665438      8914.5946      23.274063      20.15593       19.003192      11.637031      11.637031      6.7186432    
     11800   302.66169     -1440.116       19.99139       1155.8024      8905.1507      23.265841      20.14881       18.996479      11.632921      11.632921      6.7162698    
     11900   301.60408     -1440.0403      19.921533      1616.1377      8902.1133      23.263196      20.146519      18.994319      11.631598      11.631598      6.7155062    
     12000   310.64917     -1440.6436      20.518978      1325.8391      8901.1083      23.26232       20.14576       18.993605      11.63116       11.63116       6.7152534    
     12100   302.50155     -1440.1002      19.980813     -415.2788       8918.3832      23.277359      20.158785      19.005884      11.63868       11.63868       6.7195948    
     12200   305.35984     -1440.2879      20.169608     -925.32761      8920.5994      23.279287      20.160454      19.007458      11.639644      11.639644      6.7201514    
     12300   315.19062     -1440.93        20.81895       1756.8618      8895.2813      23.257243      20.141363      18.989459      11.628622      11.628622      6.7137878    
     12400   308.61308     -1440.4961      20.384491      1704.608       8898.5824      23.26012       20.143855      18.991808      11.63006       11.63006       6.7146182    
     12500   307.6991      -1440.4353      20.32412      -59.984474      8912.9377      23.272621      20.154681      19.002015      11.63631       11.63631       6.7182269    
     12600   296.44617     -1439.7031      19.580843     -1003.3329      8924.6111      23.282777      20.163476      19.010307      11.641388      11.641388      6.7211587    
     12700   305.79763     -1440.3063      20.198525     -1552.048       8925.9474      23.283939      20.164482      19.011256      11.641969      11.641969      6.7214941    
     12800   291.89897     -1439.4031      19.280492      2232.6361      8903.1379      23.264088      20.147291      18.995048      11.632044      11.632044      6.7157638    
     12900   286.76647     -1439.0553      18.94148       2914.4168      8899.1358      23.260602      20.144272      18.992201      11.630301      11.630301      6.7147574    
     13000   300.04716     -1439.9286      19.818695      1116.7874      8908.3492      23.268626      20.151222      18.998753      11.634313      11.634313      6.7170739    
     13100   299.48322     -1439.8968      19.781446     -995.80356      8923.6088      23.281905      20.162721      19.009595      11.640952      11.640952      6.720907     
     13200   314.6031      -1440.889       20.780143     -2624.3781      8931.0335      23.28836       20.168311      19.014866      11.64418       11.64418       6.7227705    
     13300   304.22086     -1440.2141      20.094376     -270.44292      8916.7002      23.275895      20.157516      19.004688      11.637948      11.637948      6.7191721    
     13400   310.29911     -1440.6439      20.495857      326.24972      8906.8719      23.26734       20.150108      18.997703      11.63367       11.63367       6.7167025    
     13500   308.18894     -1440.4927      20.356475      2815.583       8887.9598      23.250861      20.135836      18.984248      11.62543       11.62543       6.7119453    
     13600   304.25546     -1440.2328      20.096662      3492.0709      8885.4203      23.248646      20.133918      18.982439      11.624323      11.624323      6.711306     
     13700   304.4493      -1440.2733      20.109465     -207.44732      8914.2197      23.273737      20.155647      19.002926      11.636868      11.636868      6.718549     
     13800   287.22886     -1439.1436      18.972022      281.85163      8918.4264      23.277397      20.158817      19.005915      11.638698      11.638698      6.7196057    
     13900   299.75677     -1439.9623      19.799514     -3507.0709      8944.1833      23.299784      20.178205      19.024194      11.649892      11.649892      6.7260684    
     14000   296.20884     -1439.7443      19.565167     -2176.8216      8935.2694      23.292041      20.1715        19.017872      11.646021      11.646021      6.7238332    
     14100   290.94317     -1439.4015      19.217359      995.13733      8911.6848      23.27153       20.153736      19.001124      11.635765      11.635765      6.7179121    
     14200   311.49879     -1440.7369      20.575098      642.49891      8905.3438      23.266009      20.148955      18.996617      11.633005      11.633005      6.7163184    
     14300   316.35292     -1441.0529      20.895723     -559.24683      8911.9786      23.271786      20.153958      19.001333      11.635893      11.635893      6.7179859    
     14400   286.9952      -1439.107       18.956588      1611.9168      8907.5368      23.267919      20.150609      18.998176      11.63396       11.63396       6.7168697    
     14500   305.3403      -1440.3125      20.168318      52.655239      8913.5222      23.27313       20.155121      19.00243       11.636565      11.636565      6.7183738    
     14600   303.45101     -1440.1782      20.043526      2366.4084      8896.644       23.258431      20.142392      18.990429      11.629215      11.629215      6.7141306    
     14700   307.67414     -1440.4797      20.322472      22.568252      8911.8251      23.271652      20.153842      19.001224      11.635826      11.635826      6.7179474    
     14800   292.73905     -1439.5017      19.335981     -1183.3094      8928.9611      23.286559      20.166751      19.013395      11.643279      11.643279      6.7222505    
     14900   288.6955      -1439.2086      19.068896     -299.27217      8924.4313      23.28262       20.163341      19.010179      11.64131       11.64131       6.7211135    
     15000   288.19961     -1439.1723      19.036142     -667.72034      8928.4347      23.286101      20.166355      19.013021      11.643051      11.643051      6.7221183    
     15100   279.87275     -1438.6225      18.486137      126.22949      8923.8089      23.282079      20.162872      19.009737      11.641039      11.641039      6.7209573    
     15200   283.7289      -1438.8767      18.740842      410.82466      8920.2754      23.279006      20.16021       19.007228      11.639503      11.639503      6.72007      
     15300   295.81204     -1439.6682      19.538957      239.39356      8916.885       23.276056      20.157656      19.00482       11.638028      11.638028      6.7192186    
     15400   297.03615     -1439.7451      19.619812     -820.42548      8924.2252      23.282441      20.163185      19.010033      11.64122       11.64122       6.7210618    
     15500   300.90418     -1440.0022      19.875303      1813.3204      8901.9942      23.263092      20.146429      18.994235      11.631546      11.631546      6.7154762    
     15600   302.38875     -1440.1017      19.973362      3322.2627      8888.4986      23.25133       20.136243      18.984631      11.625665      11.625665      6.7120809    
     15700   307.77369     -1440.4671      20.329047      162.51984      8912.0263      23.271827      20.153994      19.001367      11.635914      11.635914      6.7179979    
     15800   299.41551     -1439.9222      19.776974      624.31976      8910.6357      23.270617      20.152946      19.000379      11.635309      11.635309      6.7176485    
     15900   297.03782     -1439.7773      19.619922     -1827.9334      8931.5488      23.288808      20.168699      19.015232      11.644404      11.644404      6.7228998    
     16000   296.77839     -1439.7504      19.602787     -4073.3795      8950.0416      23.30487       20.18261       19.028346      11.652435      11.652435      6.7275365    
     16100   295.09982     -1439.6977      19.491914     -320.31399      8921.8574      23.280382      20.161402      19.008352      11.640191      11.640191      6.7204673    
     16200   296.10702     -1439.7225      19.558441      1502.9788      8906.0588      23.266632      20.149494      18.997125      11.633316      11.633316      6.7164981    
     16300   293.5921      -1439.5517      19.392326      1030.7872      8910.9511      23.270892      20.153183      19.000603      11.635446      11.635446      6.7177277    
     16400   305.06037     -1440.2988      20.149828      295.57584      8911.7408      23.271579      20.153779      19.001164      11.635789      11.635789      6.7179262    
     16500   309.3233      -1440.5731      20.431402      223.36814      8909.5785      23.269697      20.152148      18.999627      11.634848      11.634848      6.7173828    
     16600   318.36789     -1441.1624      21.028815      588.30741      8903.2946      23.264225      20.14741       18.99516       11.632112      11.632112      6.7158032    
     16700   301.42448     -1440.0599      19.90967       849.74619      8909.1967      23.269364      20.151861      18.999356      11.634682      11.634682      6.7172869    
     16800   307.32392     -1440.4346      20.299339     -4677.7768      8950.5978      23.305353      20.183028      19.028741      11.652676      11.652676      6.7276759    
     16900   292.53801     -1439.5025      19.322701     -2481.4713      8938.1018      23.294502      20.173631      19.019881      11.647251      11.647251      6.7245436    
     17000   294.18088     -1439.5875      19.431216      1941.2811      8903.6602      23.264543      20.147685      18.995419      11.632272      11.632272      6.7158951    
     17100   296.68745     -1439.7455      19.59678       3444.8566      8890.26        23.252866      20.137573      18.985885      11.626433      11.626433      6.7125242    
     17200   289.54993     -1439.2923      19.125333      1617.2352      8907.2868      23.267701      20.15042       18.997998      11.633851      11.633851      6.7168068    
     17300   300.96882     -1440.0364      19.879572     -2640.0044      8936.4594      23.293075      20.172395      19.018716      11.646538      11.646538      6.7241316    
     17400   306.6312      -1440.4367      20.253583     -593.8564       8917.7214      23.276784      20.158286      19.005414      11.638392      11.638392      6.7194286    
     17500   296.43879     -1439.7619      19.580356      3311.0651      8889.7973      23.252463      20.137223      18.985556      11.626231      11.626231      6.7124078    
     17600   291.85641     -1439.4544      19.277681      3931.2544      8888.7484      23.251548      20.136431      18.984809      11.625774      11.625774      6.7121438    
     17700   301.21079     -1440.0658      19.895556     -508.15701      8919.0176      23.277911      20.159263      19.006335      11.638956      11.638956      6.7197542    
     17800   287.49513     -1439.1554      18.989609     -50.511405      8922.6152      23.281041      20.161973      19.00889       11.64052       11.64052       6.7206576    
     17900   276.42163     -1438.4242      18.258183     -2048.7198      8941.8685      23.297774      20.176464      19.022552      11.648887      11.648887      6.7254881    
     18000   291.94137     -1439.4419      19.283292     -3550.6199      8946.3596      23.301674      20.179841      19.025737      11.650837      11.650837      6.7266138    
     18100   289.92611     -1439.3264      19.15018      -2161.4024      8938.0058      23.294419      20.173559      19.019813      11.647209      11.647209      6.7245195    
     18200   297.376       -1439.856       19.64226      -784.86123      8923.0261      23.281398      20.162282      19.009181      11.640699      11.640699      6.7207607    
     18300   299.99718     -1439.9986      19.815394      3248.8841      8891.2303      23.253712      20.138305      18.986576      11.626856      11.626856      6.7127684    
     18400   296.50367     -1439.7674      19.584641      1557.8008      8905.9517      23.266539      20.149414      18.997049      11.633269      11.633269      6.7164712    
     18500   303.32147     -1440.203       20.03497      -1528.9701      8928.0305      23.28575       20.166051      19.012735      11.642875      11.642875      6.7220169    
     18600   308.65478     -1440.5574      20.387245     -1733.8556      8926.2902      23.284237      20.16474       19.011499      11.642118      11.642118      6.7215801    
     18700   288.84895     -1439.2512      19.079032      1613.8913      8907.561       23.26794       20.150627      18.998193      11.63397       11.63397       6.7168757    
     18800   294.32865     -1439.6036      19.440977      1602.3297      8906.2545      23.266802      20.149642      18.997264      11.633401      11.633401      6.7165473    
     18900   306.38272     -1440.4017      20.237171     -850.0229       8919.3878      23.278233      20.159542      19.006598      11.639117      11.639117      6.7198472    
     19000   304.53043     -1440.2707      20.114824     -2032.085       8929.92        23.287392      20.167473      19.014076      11.643696      11.643696      6.7224911    
     19100   316.41449     -1441.0546      20.899789     -587.24506      8913.6403      23.273232      20.15521       19.002514      11.636616      11.636616      6.7184035    
     19200   295.48735     -1439.6604      19.517511      2449.2907      8898.8776      23.260377      20.144077      18.992018      11.630188      11.630188      6.7146924    
     19300   289.07225     -1439.2411      19.093781      1464.9091      8908.8166      23.269033      20.151574      18.999086      11.634517      11.634517      6.7171913    
     19400   298.37517     -1439.8478      19.708257     -294.60586      8919.4312      23.278271      20.159574      19.006628      11.639136      11.639136      6.7198581    
     19500   301.68712     -1440.0657      19.927018     -772.91662      8921.2543      23.279857      20.160948      19.007923      11.639929      11.639929      6.7203159    
     19600   308.19864     -1440.4961      20.357116     -359.27941      8913.8941      23.273453      20.155402      19.002694      11.636727      11.636727      6.7184672    
     19700   306.51289     -1440.3779      20.245769      1549.4537      8901.4045      23.262578      20.145984      18.993815      11.631289      11.631289      6.7153279    
     19800   295.94643     -1439.68        19.547834      1168.5427      8909.4309      23.269568      20.152037      18.999522      11.634784      11.634784      6.7173457    
     19900   297.5382      -1439.7888      19.652973     -779.34126      8922.3531      23.280813      20.161775      19.008704      11.640406      11.640406      6.7205918    
     20000   301.62056     -1440.0622      19.922621     -689.45912      8921.0398      23.279671      20.160786      19.007771      11.639835      11.639835      6.720262     
     20100   296.81539     -1439.7388      19.60523      -485.94832      8921.6472      23.280199      20.161244      19.008202      11.640099      11.640099      6.7204145    
     20200   293.65776     -1439.5243      19.396663     -734.01639      8926.6014      23.284507      20.164975      19.01172       11.642254      11.642254      6.7216582    
     20300   301.12135     -1440.0346      19.889648     -3132.0834      8940.2526      23.296371      20.175249      19.021406      11.648185      11.648185      6.7250829    
     20400   302.28154     -1440.1541      19.96628       638.9899       8909.7944      23.269885      20.152311      18.999781      11.634942      11.634942      6.7174371    
     20500   299.71158     -1439.9555      19.79653       4387.1958      8881.2686      23.245024      20.130782      18.979482      11.622512      11.622512      6.7102605    
     20600   317.37386     -1441.1247      20.963157      2388.4791      8889.0978      23.251853      20.136695      18.985058      11.625926      11.625926      6.7122317    
     20700   309.90477     -1440.6676      20.469809      286.09654      8907.8963      23.268232      20.15088       18.998432      11.634116      11.634116      6.71696      
     20800   309.6339      -1440.6219      20.451918     -129.00487      8913.0601      23.272727      20.154773      19.002102      11.636364      11.636364      6.7182577    
     20900   298.73195     -1439.8932      19.731823      1886.882       8901.8042      23.262926      20.146285      18.994099      11.631463      11.631463      6.7154284    
     21000   302.15751     -1440.114       19.958088      845.95486      8907.9214      23.268254      20.150899      18.998449      11.634127      11.634127      6.7169663    
     21100   308.94702     -1440.5517      20.406548      67.737831      8911.7057      23.271548      20.153752      19.001139      11.635774      11.635774      6.7179174    
     21200   297.362       -1439.78        19.641336     -18.445064      8918.3722      23.27735       20.158776      19.005876      11.638675      11.638675      6.7195921    
     21300   283.90897     -1438.8923      18.752737     -592.12841      8928.0955      23.285806      20.1661        19.012781      11.642903      11.642903      6.7220332    
     21400   302.51473     -1440.1146      19.981683     -2654.92        8937.0131      23.293556      20.172812      19.019109      11.646778      11.646778      6.7242705    
     21500   304.69177     -1440.2616      20.12548      -297.263        8917.2071      23.276336      20.157898      19.005048      11.638168      11.638168      6.7192995    
     21600   298.65389     -1439.8597      19.726667      1968.1616      8902.0439      23.263135      20.146466      18.99427       11.631568      11.631568      6.7154887    
     21700   293.09853     -1439.4906      19.359725      2471.7666      8899.7687      23.261153      20.14475       18.992652      11.630577      11.630577      6.7149165    
     21800   292.59245     -1439.4657      19.326297      341.54343      8916.4678      23.275693      20.157341      19.004523      11.637846      11.637846      6.7191138    
     21900   291.10459     -1439.3649      19.228021     -3238.2388      8946.6495      23.301926      20.180059      19.025942      11.650963      11.650963      6.7266865    
     22000   294.847       -1439.6278      19.475214     -2700.4235      8940.5968      23.29667       20.175508      19.021651      11.648335      11.648335      6.7251692    
     22100   294.80818     -1439.6423      19.47265       1182.6025      8908.0283      23.268347      20.15098       18.998525      11.634173      11.634173      6.7169932    
     22200   318.51547     -1441.1805      21.038563     -405.53152      8909.8061      23.269895      20.15232       18.999789      11.634947      11.634947      6.71744      
     22300   310.51656     -1440.6442      20.510219      173.03994      8910.0728      23.270127      20.152521      18.999979      11.635063      11.635063      6.717507     
     22400   309.35585     -1440.5632      20.433552      1176.8442      8901.7686      23.262896      20.146258      18.994074      11.631448      11.631448      6.7154195    
     22500   295.34581     -1439.6528      19.508162      3133.4035      8893.5469      23.255731      20.140054      18.988225      11.627866      11.627866      6.7133514    
     22600   301.15003     -1440.0314      19.891542     -708.44102      8920.3261      23.27905       20.160248      19.007264      11.639525      11.639525      6.7200828    
     22700   304.30545     -1440.2254      20.099964     -2679.9262      8934.7572      23.291596      20.171114      19.017508      11.645798      11.645798      6.7237047    
     22800   298.80752     -1439.8602      19.736814     -747.1846       8923.594       23.281892      20.16271       19.009585      11.640946      11.640946      6.7209033    
     22900   305.32507     -1440.2877      20.167311      659.33481      8908.6073      23.268851      20.151416      18.998937      11.634426      11.634426      6.7171387    
     23000   313.94707     -1440.8534      20.736811      1768.1693      8897.017       23.258756      20.142673      18.990694      11.629378      11.629378      6.7142244    
     23100   298.12414     -1439.8166      19.691676      2564.3221      8896.3685      23.258191      20.142184      18.990233      11.629095      11.629095      6.7140613    
     23200   298.52698     -1439.847       19.718284     -1387.3658      8927.946       23.285676      20.165987      19.012675      11.642838      11.642838      6.7219957    
     23300   289.52252     -1439.2437      19.123523     -2328.0786      8940.1997      23.296325      20.175209      19.021369      11.648162      11.648162      6.7250697    
     23400   293.33804     -1439.5025      19.375545     -2445.622       8937.8032      23.294243      20.173406      19.019669      11.647121      11.647121      6.7244687    
     23500   304.07053     -1440.202       20.084447     -979.5575       8922.4605      23.280906      20.161856      19.00878       11.640453      11.640453      6.7206187    
     23600   308.22222     -1440.4806      20.358673      686.71216      8907.2053      23.26763       20.150359      18.99794       11.633815      11.633815      6.7167863    
     23700   299.22076     -1439.8833      19.76411       2910.0082      8892.8004      23.255081      20.139491      18.987693      11.62754       11.62754       6.7131635    
     23800   304.99659     -1440.2735      20.145615      2323.3643      8895.4338      23.257376      20.141478      18.989568      11.628688      11.628688      6.7138261    
     23900   302.74768     -1440.1212      19.99707      -1463.6231      8926.579       23.284488      20.164958      19.011704      11.642244      11.642244      6.7216526    
     24000   306.2134      -1440.3469      20.225988     -904.61553      8921.0234      23.279656      20.160774      19.007759      11.639828      11.639828      6.7202579    
     24100   288.04463     -1439.141       19.025905      3156.6405      8895.6442      23.257559      20.141637      18.989717      11.62878       11.62878       6.7138791    
     24200   289.20934     -1439.2256      19.102836      3258.4934      8895.3095      23.257268      20.141385      18.989479      11.628634      11.628634      6.7137949    
     24300   316.11207     -1441.0044      20.879814     -3208.5771      8934.9625      23.291775      20.171269      19.017654      11.645887      11.645887      6.7237562    
     24400   301.93142     -1440.068       19.943155     -1746.9816      8927.9372      23.285669      20.165981      19.012668      11.642834      11.642834      6.7219935    
     24500   297.97282     -1439.8034      19.681681      153.48449      8916.5897      23.275799      20.157433      19.00461       11.637899      11.637899      6.7191444    
     24600   304.06523     -1440.2023      20.084096     -662.65694      8918.5629      23.277516      20.15892       19.006012      11.638758      11.638758      6.71964      
     24700   302.38848     -1440.0972      19.973344     -1241.3435      8925.04        23.28315       20.163799      19.010612      11.641575      11.641575      6.7212663    
     24800   304.92845     -1440.2555      20.141114     -952.45589      8921.9487      23.280461      20.161471      19.008416      11.64023       11.64023       6.7204902    
     24900   320.17595     -1441.276       21.148241     -69.043479      8906.6663      23.267161      20.149953      18.997557      11.633581      11.633581      6.7166509    
     25000   310.47907     -1440.6269      20.507743      3806.4566      8881.6068      23.245319      20.131037      18.979723      11.62266       11.62266       6.7103457    
     25100   301.44756     -1440.0538      19.911194      4148.3518      8883.5079      23.246978      20.132473      18.981077      11.623489      11.623489      6.7108244    
     25200   297.23059     -1439.7869      19.632655      1133.023       8909.4762      23.269608      20.152071      18.999555      11.634804      11.634804      6.7173571    
     25300   297.94606     -1439.8238      19.679914     -2406.3702      8935.2052      23.291986      20.171451      19.017826      11.645993      11.645993      6.7238171    
     25400   289.6298      -1439.2725      19.130608     -136.46842      8922.9559      23.281337      20.162229      19.009132      11.640669      11.640669      6.7207431    
     25500   299.87841     -1439.9433      19.807549     -1232.1128      8924.4342      23.282623      20.163343      19.010181      11.641311      11.641311      6.7211142    
     25600   301.34885     -1440.0368      19.904674     -357.43173      8917.8555      23.2769        20.158387      19.005509      11.63845       11.63845       6.7194623    
     25700   301.43456     -1440.0344      19.910336      1667.9089      8902.9747      23.263946      20.147168      18.994932      11.631973      11.631973      6.7157228    
     25800   306.6509      -1440.3697      20.254885      1427.4362      8901.349       23.26253       20.145942      18.993776      11.631265      11.631265      6.715314     
     25900   291.77688     -1439.3936      19.272427      2139.9077      8903.0832      23.264041      20.14725       18.995009      11.63202       11.63202       6.71575      
     26000   302.77012     -1440.1258      19.998552     -914.40198      8921.9216      23.280438      20.16145       19.008397      11.640219      11.640219      6.7204834    
     26100   314.66078     -1440.8987      20.783953     -3403.705       8937.4265      23.293916      20.173123      19.019402      11.646958      11.646958      6.7243742    
     26200   296.78565     -1439.7387      19.603266     -340.03644      8919.3724      23.27822       20.15953       19.006587      11.63911       11.63911       6.7198433    
     26300   303.04986     -1440.1345      20.017029      1898.5996      8899.6732      23.26107       20.144678      18.992584      11.630535      11.630535      6.7148925    
     26400   297.84055     -1439.7983      19.672945      2156.0965      8899.1221      23.26059       20.144262      18.992192      11.630295      11.630295      6.7147539    
     26500   295.55985     -1439.642       19.5223        55.133066      8917.3382      23.27645       20.157997      19.005142      11.638225      11.638225      6.7193324    
     26600   294.22897     -1439.5554      19.434392     -1323.2688      8927.9631      23.285691      20.166         19.012687      11.642846      11.642846      6.722        
     26700   311.20653     -1440.671       20.555794     -2332.6584      8929.5434      23.287065      20.16719       19.013808      11.643532      11.643532      6.7223966    
     26800   294.19925     -1439.5549      19.432429     -1735.0099      8931.8549      23.289074      20.16893       19.015449      11.644537      11.644537      6.7229766    
     26900   288.74077     -1439.1826      19.071886     -718.21958      8925.6389      23.28367       20.16425       19.011037      11.641835      11.641835      6.7214166    
     27000   303.3088      -1440.1401      20.034133     -1730.5196      8928.4703      23.286132      20.166382      19.013047      11.643066      11.643066      6.7221273    
     27100   299.65371     -1439.9069      19.792707     -750.73635      8922.6619      23.281081      20.162008      19.008923      11.640541      11.640541      6.7206693    
     27200   294.57866     -1439.5587      19.45749       881.04822      8912.344       23.272104      20.154233      19.001593      11.636052      11.636052      6.7180778    
     27300   298.33533     -1439.8048      19.705625      1254.9027      8907.6764      23.268041      20.150714      18.998275      11.63402       11.63402       6.7169047    
     27400   286.01251     -1438.995       18.89168       2352.8972      8903.1468      23.264096      20.147298      18.995054      11.632048      11.632048      6.715766     
     27500   296.28048     -1439.6836      19.569898     -1836.1029      8932.6832      23.289794      20.169553      19.016037      11.644897      11.644897      6.7231844    
     27600   299.16544     -1439.8698      19.760456     -2638.9546      8937.2815      23.29379       20.173014      19.019299      11.646895      11.646895      6.7243379    
     27700   304.00157     -1440.189       20.079892     -1079.1469      8924.3664      23.282564      20.163292      19.010133      11.641282      11.641282      6.7210972    
     27800   288.33856     -1439.1615      19.04532       2120.4406      8904.9691      23.265683      20.148673      18.99635       11.632842      11.632842      6.7162242    
     27900   299.048       -1439.8673      19.752699      1398.833       8904.977       23.26569       20.148679      18.996356      11.632845      11.632845      6.7162262    
     28000   289.04504     -1439.216       19.091984      2526.6959      8901.3675      23.262546      20.145956      18.993789      11.631273      11.631273      6.7153186    
     28100   314.88644     -1440.9321      20.798858     -2414.363       8929.6689      23.287174      20.167284      19.013897      11.643587      11.643587      6.7224281    
     28200   300.90203     -1439.9938      19.875161      244.60404      8915.3186      23.274693      20.156475      19.003707      11.637346      11.637346      6.7188251    
     28300   299.64426     -1439.9091      19.792083      384.35325      8913.713       23.273296      20.155265      19.002566      11.636648      11.636648      6.7184217    
     28400   299.16426     -1439.8755      19.760378      965.43991      8909.3812      23.269525      20.152         18.999487      11.634762      11.634762      6.7173332    
     28500   291.81775     -1439.4024      19.275127      1980.2943      8903.3841      23.264303      20.147477      18.995223      11.632151      11.632151      6.7158257    
     28600   303.35627     -1440.1624      20.037268      327.99927      8910.5682      23.270558      20.152895      19.000331      11.635279      11.635279      6.7176315    
     28700   307.982       -1440.4524      20.342807      978.99641      8905.3863      23.266046      20.148987      18.996647      11.633023      11.633023      6.7163291    
     28800   311.41503     -1440.6816      20.569565      246.6891       8908.5113      23.268768      20.151344      18.998869      11.634384      11.634384      6.7171146    
     28900   290.58539     -1439.3057      19.193727      689.35606      8915.1068      23.274509      20.156316      19.003556      11.637254      11.637254      6.7187719    
     29000   290.19586     -1439.2745      19.167998     -865.59451      8928.4929      23.286152      20.166399      19.013063      11.643076      11.643076      6.722133     
     29100   289.64399     -1439.2447      19.131546     -965.30726      8928.8211      23.286437      20.166646      19.013296      11.643218      11.643218      6.7222153    
     29200   298.63533     -1439.8309      19.725441      156.02931      8916.3291      23.275572      20.157237      19.004425      11.637786      11.637786      6.7190789    
     29300   311.06639     -1440.6492      20.546537     -1022.0813      8919.5791      23.2784        20.159686      19.006733      11.6392        11.6392        6.7198952    
     29400   298.33679     -1439.8083      19.705722      1107.242       8908.7421      23.268968      20.151518      18.999033      11.634484      11.634484      6.7171726    
     29500   302.61419     -1440.0895      19.988253      215.05838      8914.1268      23.273656      20.155577      19.00286       11.636828      11.636828      6.7185257    
     29600   300.46661     -1439.9494      19.8464        359.31811      8913.8748      23.273436      20.155387      19.002681      11.636718      11.636718      6.7184624    
     29700   298.533       -1439.8251      19.718682      2236.6165      8899.4433      23.26087       20.144504      18.99242       11.630435      11.630435      6.7148347    
     29800   310.32466     -1440.612       20.497544      467.18619      8908.0622      23.268377      20.151005      18.998549      11.634188      11.634188      6.7170017    
     29900   301.25854     -1440.0162      19.898709     -841.20446      8922.2376      23.280712      20.161688      19.008622      11.640356      11.640356      6.7205628    
     30000   296.35608     -1439.692       19.574892     -1489.7299      8929.1734      23.286743      20.166911      19.013546      11.643372      11.643372      6.7223037    
     30100   299.27209     -1439.8982      19.767501     -262.31054      8918.9821      23.27788       20.159236      19.006309      11.63894       11.63894       6.7197453    
     30200   293.03996     -1439.484       19.355856      1972.1656      8903.9057      23.264757      20.147871      18.995594      11.632378      11.632378      6.7159568    
     30300   299.62334     -1439.9156      19.790701      432.09611      8911.9472      23.271759      20.153934      19.001311      11.635879      11.635879      6.717978     
     30400   292.429       -1439.439       19.315501      835.19202      8913.2857      23.272924      20.154943      19.002262      11.636462      11.636462      6.7183144    
     30500   300.19379     -1439.9554      19.82838      -1473.3335      8927.3032      23.285117      20.165503      19.012218      11.642559      11.642559      6.7218344    
     30600   312.23864     -1440.7486      20.623966     -1363.8833      8923.3525      23.281682      20.162528      19.009413      11.640841      11.640841      6.7208427    
     30700   291.16869     -1439.3575      19.232255      2764.1126      8899.1493      23.260614      20.144282      18.992211      11.630307      11.630307      6.7147608    
     30800   299.38288     -1439.9019      19.774818      663.02257      8910.9612      23.2709        20.153191      19.00061       11.63545       11.63545       6.7177303    
     30900   303.33182     -1440.1597      20.035654     -1522.5726      8927.6354      23.285406      20.165753      19.012454      11.642703      11.642703      6.7219178    
     31000   296.17593     -1439.6859      19.562993     -1810.8701      8932.5673      23.289693      20.169466      19.015954      11.644847      11.644847      6.7231553    
     31100   299.49272     -1439.904       19.782073     -1081.7297      8926.2103      23.284167      20.16468       19.011442      11.642084      11.642084      6.7215601    
     31200   300.01636     -1439.952       19.816661      888.47193      8908.2342      23.268526      20.151135      18.998672      11.634263      11.634263      6.717045     
     31300   292.85738     -1439.4711      19.343797      830.80457      8911.6431      23.271494      20.153705      19.001095      11.635747      11.635747      6.7179016    
     31400   288.19751     -1439.1622      19.036003      348.53632      8917.8081      23.276859      20.158351      19.005475      11.63843       11.63843       6.7194504    
     31500   301.1192      -1440.0108      19.889506     -1489.1261      8927.7001      23.285462      20.165802      19.0125        11.642731      11.642731      6.721934     
     31600   287.33361     -1439.0931      18.97894      -356.16699      8926.5109      23.284428      20.164907      19.011656      11.642214      11.642214      6.7216355    
     31700   305.04603     -1440.2657      20.14888      -2739.4398      8935.6708      23.29239       20.171802      19.018156      11.646195      11.646195      6.7239339    
     31800   299.45003     -1439.9387      19.779254     -1101.4334      8925.0917      23.283194      20.163838      19.010648      11.641597      11.641597      6.7212793    
     31900   293.58803     -1439.5498      19.392057      1433.8448      8908.0227      23.268342      20.150975      18.998521      11.634171      11.634171      6.7169918    
     32000   301.70489     -1440.06        19.928191      2214.0011      8896.1431      23.257994      20.142014      18.990072      11.628997      11.628997      6.7140046    
     32100   301.34901     -1440.0795      19.904685      553.45244      8909.876       23.269956      20.152373      18.999839      11.634978      11.634978      6.7174576    
     32200   302.6528      -1440.1415      19.990803     -2625.321       8935.5137      23.292254      20.171683      19.018045      11.646127      11.646127      6.7238945    
     32300   289.60396     -1439.28        19.128901     -658.56368      8926.1683      23.284131      20.164649      19.011413      11.642065      11.642065      6.7215495    
     32400   283.35123     -1438.8622      18.715897      1746.9957      8909.4816      23.269612      20.152075      18.999558      11.634806      11.634806      6.7173585    
     32500   280.44981     -1438.6679      18.524252      1715.7163      8910.2656      23.270295      20.152666      19.000116      11.635147      11.635147      6.7175555    
     32600   296.4805      -1439.729       19.583111     -804.18724      8922.9064      23.281294      20.162192      19.009097      11.640647      11.640647      6.7207307    
     32700   297.14797     -1439.7572      19.627198      180.93578      8915.7812      23.275095      20.156824      19.004035      11.637548      11.637548      6.7189413    
     32800   298.89409     -1439.864       19.742533     -623.93589      8921.2676      23.279869      20.160958      19.007933      11.639934      11.639934      6.7203192    
     32900   289.48205     -1439.2362      19.120849     -201.43624      8921.5011      23.280072      20.161134      19.008099      11.640036      11.640036      6.7203778    
     33000   291.53306     -1439.362       19.256322      141.48282      8919.6112      23.278428      20.15971       19.006756      11.639214      11.639214      6.7199032    
     33100   296.13093     -1439.6611      19.560021     -1628.0897      8931.429       23.288704      20.168609      19.015147      11.644352      11.644352      6.7228697    
     33200   292.89853     -1439.4429      19.346515     -749.23073      8925.5966      23.283634      20.164218      19.011007      11.641817      11.641817      6.721406     
     33300   297.4455      -1439.7394      19.646851     -1112.7607      8926.4874      23.284408      20.164889      19.011639      11.642204      11.642204      6.7216296    
     33400   301.90244     -1440.0325      19.94124       12.472838      8916.2221      23.275479      20.157156      19.004349      11.63774       11.63774       6.719052     
     33500   310.8108      -1440.6217      20.529654      922.58907      8905.035       23.265741      20.148722      18.996397      11.63287       11.63287       6.7162408    
     33600   303.92291     -1440.1708      20.074696      2088.3725      8897.8947      23.25952       20.143336      18.991318      11.62976       11.62976       6.7144452    
     33700   290.9536      -1439.3704      19.218048      1589.7234      8908.4942      23.268753      20.151331      18.998857      11.634376      11.634376      6.7171103    
     33800   308.28617     -1440.4928      20.362898     -814.65396      8921.1658      23.27978       20.160881      19.00786       11.63989       11.63989       6.7202936    
     33900   304.37723     -1440.2264      20.104705     -592.16677      8917.8689      23.276912      20.158397      19.005519      11.638456      11.638456      6.7194657    
     34000   300.27746     -1439.9586      19.833907     -235.38122      8917.6057      23.276683      20.158199      19.005332      11.638341      11.638341      6.7193996    
     34100   294.53303     -1439.5765      19.454476     -945.80848      8926.2984      23.284244      20.164747      19.011505      11.642122      11.642122      6.7215822    
     34200   292.4043      -1439.4418      19.31387      -1076.2723      8926.1878      23.284148      20.164663      19.011426      11.642074      11.642074      6.7215544    
     34300   290.80117     -1439.3338      19.20798       728.32552      8914.3923      23.273887      20.155777      19.003048      11.636943      11.636943      6.7185924    
     34400   301.35368     -1440.0229      19.904993      1053.2027      8907.301       23.267714      20.150431      18.998008      11.633857      11.633857      6.7168104    
     34500   310.16502     -1440.6028      20.486999     -1299.2543      8920.9244      23.27957       20.160699      19.007689      11.639785      11.639785      6.720233     
     34600   303.43699     -1440.1557      20.0426       -1643.1057      8928.4375      23.286104      20.166357      19.013023      11.643052      11.643052      6.7221191    
     34700   295.09091     -1439.616       19.491326     -1109.26        8926.0872      23.28406       20.164588      19.011355      11.64203       11.64203       6.7215292    
     34800   301.75092     -1440.0516      19.931232      730.92115      8909.4577      23.269592      20.152057      18.999541      11.634796      11.634796      6.7173525    
     34900   297.53018     -1439.7652      19.652444      1620.4844      8903.4716      23.264379      20.147543      18.995285      11.632189      11.632189      6.7158477    
     35000   309.12198     -1440.5431      20.418105     -1240.901       8921.3676      23.279956      20.161033      19.008004      11.639978      11.639978      6.7203443    
     35100   303.72826     -1440.1756      20.061839     -1522.8623      8927.2474      23.285069      20.165461      19.012179      11.642534      11.642534      6.7218204    
     35200   291.62763     -1439.3864      19.262569      341.91816      8916.885       23.276056      20.157656      19.00482       11.638028      11.638028      6.7192186    
     35300   296.29837     -1439.6854      19.57108      -819.90911      8924.4753      23.282658      20.163374      19.010211      11.641329      11.641329      6.7211245    
     35400   303.93985     -1440.1959      20.075815     -811.21022      8921.0561      23.279685      20.160798      19.007782      11.639842      11.639842      6.7202661    
     35500   308.08394     -1440.483       20.34954       394.21361      8909.9567      23.270026      20.152434      18.999896      11.635013      11.635013      6.7174779    
     35600   303.60776     -1440.1916      20.05388       1423.9426      8902.3815      23.263429      20.146721      18.99451       11.631715      11.631715      6.7155736    
     35700   311.41565     -1440.694       20.569606      2113.2341      8895.1435      23.257123      20.141259      18.989361      11.628561      11.628561      6.7137531    
     35800   291.52625     -1439.3901      19.255872      2960.2748      8896.8049      23.258571      20.142513      18.990543      11.629285      11.629285      6.714171     
     35900   304.14974     -1440.2332      20.089679     -1118.4774      8923.8588      23.282122      20.162909      19.009773      11.641061      11.641061      6.7209698    
     36000   308.84314     -1440.5343      20.399687     -958.64636      8921.5153      23.280084      20.161144      19.008109      11.640042      11.640042      6.7203814    
     36100   296.90944     -1439.7481      19.611443      1379.5919      8906.9382      23.267398      20.150158      18.99775       11.633699      11.633699      6.7167192    
     36200   295.20725     -1439.6314      19.499009      1029.2348      8909.282       23.269439      20.151925      18.999417      11.634719      11.634719      6.7173083    
     36300   307.21807     -1440.418       20.292348     -787.76901      8919.8971      23.278676      20.159925      19.006959      11.639338      11.639338      6.7199751    
     36400   308.27152     -1440.5255      20.36193      -269.56907      8914.1483      23.273674      20.155593      19.002875      11.636837      11.636837      6.7185311    
     36500   303.71796     -1440.193       20.061159      926.47534      8905.8682      23.266466      20.149351      18.99699       11.633233      11.633233      6.7164502    
     36600   300.38397     -1439.9677      19.840942      104.51867      8915.1316      23.27453       20.156334      19.003574      11.637265      11.637265      6.7187781    
     36700   305.33256     -1440.2878      20.167806     -410.67897      8917.9125      23.27695       20.15843       19.00555       11.638475      11.638475      6.7194766    
     36800   299.64245     -1439.9097      19.791964     -300.61983      8918.6589      23.277599      20.158992      19.00608       11.6388        11.6388        6.7196641    
     36900   294.30214     -1439.5633      19.439226      236.32723      8916.4226      23.275654      20.157307      19.004491      11.637827      11.637827      6.7191024    
     37000   305.29852     -1440.2773      20.165558      87.292471      8912.2697      23.272039      20.154177      19.00154       11.63602       11.63602       6.7180591    
     37100   307.36046     -1440.4094      20.301753      945.81281      8905.7472      23.266361      20.149259      18.996904      11.63318       11.63318       6.7164198    
     37200   301.2694      -1440.0015      19.899427      1519.0889      8904.9706      23.265684      20.148674      18.996351      11.632842      11.632842      6.7162246    
     37300   298.44853     -1439.8148      19.713103      290.34504      8915.298       23.274675      20.15646       19.003692      11.637337      11.637337      6.7188199    
     37400   287.348       -1439.0805      18.979891     -1023.1637      8930.4498      23.287853      20.167872      19.014452      11.643926      11.643926      6.722624     
     37500   289.3401      -1439.2146      19.111473      254.64951      8918.7411      23.277671      20.159054      19.006138      11.638835      11.638835      6.7196847    
     37600   303.83728     -1440.1673      20.06904       450.45049      8910.7862      23.270748      20.153059      19.000486      11.635374      11.635374      6.7176863    
     37700   301.1879      -1439.9948      19.894043     -822.05346      8922.1227      23.280612      20.161602      19.00854       11.640306      11.640306      6.7205339    
     37800   303.94849     -1440.1901      20.076386     -2457.5226      8933.59        23.290582      20.170236      19.01668       11.645291      11.645291      6.7234119    
     37900   292.41715     -1439.4332      19.314718      665.84935      8914.7282      23.274179      20.15603       19.003287      11.63709       11.63709       6.7186768    
     38000   305.51731     -1440.2842      20.180009     -560.91096      8918.3495      23.27733       20.158759      19.00586       11.638665      11.638665      6.7195864    
     38100   288.7873      -1439.1852      19.07496       1757.2226      8906.2426      23.266792      20.149633      18.997256      11.633396      11.633396      6.7165443    
     38200   311.18243     -1440.6648      20.554201      405.63515      8908.0196      23.268339      20.150973      18.998519      11.63417       11.63417       6.716991     
     38300   320.39079     -1441.273       21.162431      463.63637      8903.4561      23.264365      20.147531      18.995274      11.632183      11.632183      6.7158438    
     38400   297.45294     -1439.7667      19.647342      2455.1462      8898.2693      23.259847      20.143618      18.991585      11.629923      11.629923      6.7145394    
     38500   290.8503      -1439.3424      19.211225      1098.1481      8911.1853      23.271095      20.15336       19.000769      11.635548      11.635548      6.7177866    
     38600   290.80326     -1439.3359      19.208118      703.66069      8914.4983      23.273979      20.155857      19.003124      11.636989      11.636989      6.718619     
     38700   300.71405     -1439.9908      19.862744     -1260.9391      8924.8225      23.28296       20.163635      19.010457      11.64148       11.64148       6.7212117    
     38800   289.39191     -1439.2386      19.114895      310.7463       8919.3392      23.278191      20.159505      19.006563      11.639096      11.639096      6.7198349    
     38900   302.05423     -1440.0734      19.951266     -261.3351       8916.3768      23.275614      20.157273      19.004459      11.637807      11.637807      6.7190909    
     39000   303.22802     -1440.1537      20.028798     -860.38302      8921.0111      23.279645      20.160764      19.00775       11.639823      11.639823      6.7202548    
     39100   299.91406     -1439.932       19.809904     -2175.4844      8932.7966      23.289893      20.169639      19.016117      11.644946      11.644946      6.7232129    
     39200   303.24186     -1440.1467      20.029711     -1176.1774      8923.2852      23.281623      20.162477      19.009365      11.640812      11.640812      6.7208258    
     39300   307.76762     -1440.4442      20.328646     -313.85279      8914.7448      23.274194      20.156043      19.003299      11.637097      11.637097      6.718681     
     39400   294.92982     -1439.5954      19.480685      1467.0337      8907.435       23.26783       20.150532      18.998104      11.633915      11.633915      6.7168441    
     39500   299.16371     -1439.869       19.760341      463.43748      8913.1368      23.272794      20.154831      19.002156      11.636397      11.636397      6.7182769    
     39600   288.33542     -1439.1543      19.045112      36.777236      8922.2105      23.280689      20.161668      19.008602      11.640344      11.640344      6.7205559    
     39700   299.46995     -1439.8919      19.780569     -1101.4688      8925.403       23.283465      20.164072      19.010869      11.641733      11.641733      6.7213574    
     39800   305.82634     -1440.3095      20.200421     -1075.2143      8921.7216      23.280264      20.1613        19.008255      11.640132      11.640132      6.7204332    
     39900   312.04796     -1440.7304      20.611371     -777.16495      8917.5515      23.276636      20.158158      19.005293      11.638318      11.638318      6.719386     
     40000   290.60976     -1439.3078      19.195336      2569.5614      8900.6868      23.261953      20.145442      18.993305      11.630977      11.630977      6.7151474    
     40100   295.31971     -1439.6187      19.506438      183.8199       8916.9014      23.27607       20.157668      19.004831      11.638035      11.638035      6.7192227    
     40200   291.96815     -1439.3991      19.285061     -58.887582      8920.2571      23.27899       20.160196      19.007215      11.639495      11.639495      6.7200655    
     40300   295.01738     -1439.5958      19.486468     -1055.181       8925.0614      23.283168      20.163815      19.010627      11.641584      11.641584      6.7212717    
     40400   300.34938     -1439.9458      19.838658     -1387.4292      8927.58        23.285358      20.165712      19.012415      11.642679      11.642679      6.7219039    
     40500   294.31086     -1439.5547      19.439801     -251.44982      8918.7966      23.277719      20.159096      19.006178      11.63886       11.63886       6.7196987    
     40600   306.62676     -1440.3579      20.25329      -139.83925      8913.7375      23.273317      20.155284      19.002583      11.636658      11.636658      6.7184279    
     40700   288.52441     -1439.1664      19.057595      1593.511       8908.5471      23.268799      20.151371      18.998894      11.634399      11.634399      6.7171236    
     40800   295.14798     -1439.6202      19.495095     -1029.2496      8928.5211      23.286176      20.16642       19.013083      11.643088      11.643088      6.72214      
     40900   296.32235     -1439.6889      19.572664     -2611.7347      8938.3405      23.29471       20.17381       19.02005       11.647355      11.647355      6.7246034    
     41000   303.58296     -1440.176       20.052241      990.37621      8907.6279      23.267998      20.150678      18.998241      11.633999      11.633999      6.7168926    
     41100   294.86979     -1439.6005      19.47672       2380.4567      8899.3594      23.260797      20.144441      18.992361      11.630398      11.630398      6.7148136    
     41200   302.30901     -1440.0897      19.968095     -853.97707      8921.0562      23.279685      20.160798      19.007783      11.639842      11.639842      6.7202661    
     41300   300.90721     -1439.9892      19.875503     -1096.3628      8923.7867      23.28206       20.162855      19.009722      11.64103       11.64103       6.7209517    
     41400   307.57141     -1440.4347      20.315686      390.15092      8909.9572      23.270026      20.152434      18.999897      11.635013      11.635013      6.717478     
     41500   308.7108      -1440.5004      20.390946      3014.3134      8889.0703      23.251829      20.136674      18.985038      11.625914      11.625914      6.7122248    
     41600   313.17096     -1440.8025      20.685548      1583.1694      8898.9282      23.260421      20.144115      18.992054      11.63021       11.63021       6.7147051    
     41700   302.00679     -1440.0688      19.948133     -793.0866       8921.3821      23.279968      20.161044      19.008014      11.639984      11.639984      6.720348     
     41800   303.32472     -1440.1534      20.035185     -261.41272      8917.1325      23.276271      20.157842      19.004995      11.638136      11.638136      6.7192807    
     41900   293.24189     -1439.4921      19.369194      976.24877      8911.1626      23.271076      20.153343      19.000753      11.635538      11.635538      6.7177809    
     42000   306.34242     -1440.3574      20.234509      454.97601      8908.9624      23.26916       20.151684      18.999189      11.63458       11.63458       6.717228     
     42100   305.12706     -1440.2893      20.154232     -1017.0042      8921.0706      23.279697      20.160809      19.007793      11.639849      11.639849      6.7202697    
     42200   295.65089     -1439.6616      19.528313     -1419.5146      8929.8107      23.287297      20.167391      19.013998      11.643649      11.643649      6.7224637    
     42300   292.38036     -1439.44        19.312288     -1897.7459      8934.7405      23.291582      20.171102      19.017496      11.645791      11.645791      6.7237005    
     42400   296.35129     -1439.7013      19.574576     -1534.8087      8928.9854      23.28658       20.16677       19.013412      11.64329       11.64329       6.7222566    
     42500   291.32736     -1439.3644      19.242735     -1962.268       8935.794       23.292497      20.171894      19.018244      11.646249      11.646249      6.7239648    
     42600   291.86357     -1439.4065      19.278154     -2090.291       8937.8739      23.294304      20.173459      19.019719      11.647152      11.647152      6.7244864    
     42700   295.81381     -1439.6722      19.539074     -1314.831       8926.8594      23.284732      20.165169      19.011903      11.642366      11.642366      6.721723     
     42800   293.81144     -1439.5329      19.406814      513.61487      8913.2149      23.272862      20.15489       19.002212      11.636431      11.636431      6.7182966    
     42900   303.4356      -1440.1641      20.042508      699.27952      8908.8118      23.269029      20.15157       18.999082      11.634515      11.634515      6.7171901    
     43000   297.23172     -1439.756       19.63273       1354.1758      8906.4226      23.266949      20.149769      18.997384      11.633474      11.633474      6.7165896    
     43100   301.50396     -1440.0321      19.914919     -732.7126       8921.1518      23.279768      20.16087       19.00785       11.639884      11.639884      6.7202901    
[...]
   1989600   316.55776     -1441.0346      20.909252     -99.694389      8909.1911      23.269359      20.151856      18.999352      11.63468       11.63468       6.7172855    
   1989700   306.1304      -1440.3521      20.220505     -586.33756      8918.544       23.277499      20.158906      19.005998      11.63875       11.63875       6.7196352    
   1989800   296.1661      -1439.6857      19.562344      130.25052      8917.9937      23.277021      20.158491      19.005607      11.63851       11.63851       6.719497     
   1989900   298.31753     -1439.8247      19.70445       926.2349       8909.6921      23.269796      20.152234      18.999708      11.634898      11.634898      6.7174114    
   1990000   307.35205     -1440.4155      20.301198      84.282511      8912.6734      23.272391      20.154482      19.001827      11.636195      11.636195      6.7181605    
   1990100   306.13613     -1440.3311      20.220884      106.15827      8915.1953      23.274586      20.156382      19.003619      11.637293      11.637293      6.7187941    
   1990200   303.10403     -1440.1343      20.020608     -221.14434      8917.3205      23.276435      20.157984      19.005129      11.638217      11.638217      6.7193279    
   1990300   297.56338     -1439.7795      19.654636      216.32438      8915.3796      23.274746      20.156521      19.00375       11.637373      11.637373      6.7188404    
   1990400   288.74908     -1439.1921      19.072435      1967.3975      8906.8666      23.267336      20.150104      18.997699      11.633668      11.633668      6.7167012    
   1990500   300.23745     -1439.947       19.831265      567.22319      8912.049       23.271847      20.154011      19.001383      11.635924      11.635924      6.7180036    
   1990600   289.42946     -1439.2414      19.117376     -399.33529      8922.5023      23.280943      20.161888      19.00881       11.640471      11.640471      6.7206292    
   1990700   305.79035     -1440.3194      20.198044     -2271.5648      8933.4503      23.290461      20.170131      19.016581      11.64523       11.64523       6.7233768    
   1990800   301.93078     -1440.0686      19.943112     -2391.3857      8933.5799      23.290573      20.170228      19.016673      11.645287      11.645287      6.7234094    
   1990900   286.02567     -1439.0159      18.892549      761.94022      8916.5429      23.275758      20.157398      19.004577      11.637879      11.637879      6.7191326    
   1991000   292.16819     -1439.4309      19.298274     -1211.9392      8928.7661      23.286389      20.166605      19.013257      11.643195      11.643195      6.7222015    
   1991100   304.54298     -1440.2443      20.115653     -1400.8555      8925.7833      23.283796      20.164359      19.011139      11.641898      11.641898      6.7214529    
   1991200   284.09091     -1438.8926      18.764754      1684.6103      8909.7302      23.269829      20.152263      18.999735      11.634914      11.634914      6.717421     
   1991300   295.548       -1439.6489      19.521517     -1980.4825      8933.9395      23.290886      20.170499      19.016928      11.645443      11.645443      6.7234996    
   1991400   301.12062     -1440.0265      19.8896       -3186.9784      8940.4744      23.296563      20.175416      19.021564      11.648282      11.648282      6.7251385    
   1991500   297.01947     -1439.7661      19.618711      0.50076004     8917.8712      23.276914      20.158399      19.00552       11.638457      11.638457      6.7194663    
   1991600   301.41153     -1440.0418      19.908814      942.00759      8907.1865      23.267614      20.150345      18.997927      11.633807      11.633807      6.7167816    
   1991700   298.33267     -1439.8321      19.70545       1206.5405      8907.0348      23.267482      20.15023       18.997819      11.633741      11.633741      6.7167435    
   1991800   308.52849     -1440.5082      20.378903     -2102.3605      8928.8448      23.286458      20.166664      19.013313      11.643229      11.643229      6.7222213    
   1991900   309.0318      -1440.5423      20.412148     -1030.7661      8921.9635      23.280474      20.161482      19.008427      11.640237      11.640237      6.7204939    
   1992000   310.66711     -1440.6631      20.520164      2246.0999      8893.9941      23.256121      20.140392      18.988543      11.628061      11.628061      6.7134639    
   1992100   312.00926     -1440.7449      20.608815      2737.4764      8888.4441      23.251283      20.136202      18.984592      11.625641      11.625641      6.7120672    
   1992200   301.79626     -1440.0942      19.934227      4378.4323      8879.237       23.243252      20.129246      18.978035      11.621626      11.621626      6.7097488    
   1992300   305.63591     -1440.3991      20.187843      2347.5878      8894.0947      23.256209      20.140468      18.988615      11.628104      11.628104      6.7134892    
   1992400   304.45979     -1440.323       20.110158     -206.18042      8913.925       23.27348       20.155425      19.002716      11.63674       11.63674       6.718475     
   1992500   298.85826     -1439.9332      19.740166     -523.41912      8921.3227      23.279917      20.160999      19.007972      11.639958      11.639958      6.720333     
   1992600   292.24737     -1439.4814      19.303504     -1660.539       8931.2325      23.288533      20.168461      19.015007      11.644267      11.644267      6.7228204    
   1992700   299.89912     -1439.9775      19.808917     -571.60727      8920.6117      23.279298      20.160464      19.007467      11.639649      11.639649      6.7201545    
   1992800   303.44401     -1440.2082      20.043064      520.51396      8909.2573      23.269417      20.151906      18.999399      11.634709      11.634709      6.7173021    
   1992900   314.56469     -1440.9349      20.777606      117.77861      8908.7007      23.268932      20.151487      18.999003      11.634466      11.634466      6.7171622    
   1993000   299.9963      -1439.9677      19.815336      2060.4572      8898.4231      23.259981      20.143734      18.991694      11.62999       11.62999       6.7145781    
   1993100   303.41104     -1440.1904      20.040886     -320.52499      8916.1079      23.27538       20.15707       19.004267      11.63769       11.63769       6.7190234    
   1993200   298.21006     -1439.8335      19.697351      108.45864      8917.676       23.276744      20.158252      19.005382      11.638372      11.638372      6.7194172    
   1993300   289.32048     -1439.2445      19.110177      393.57162      8919.3016      23.278158      20.159477      19.006536      11.639079      11.639079      6.7198255    
   1993400   293.11029     -1439.4953      19.360501     -481.12843      8923.3353      23.281667      20.162515      19.009401      11.640833      11.640833      6.7208383    
   1993500   279.12666     -1438.5634      18.436856      1608.347       8912.7614      23.272467      20.154548      19.00189       11.636234      11.636234      6.7181826    
   1993600   290.36393     -1439.3021      19.179099      948.72193      8913.3339      23.272966      20.154979      19.002296      11.636483      11.636483      6.7183265    
   1993700   304.14813     -1440.2119      20.089572     -1878.4522      8929.3091      23.286861      20.167013      19.013642      11.643431      11.643431      6.7223378    
   1993800   306.19613     -1440.3481      20.224847     -4238.4288      8946.9155      23.302157      20.18026       19.026131      11.651078      11.651078      6.7267532    
   1993900   301.3188      -1440.0527      19.90269      -896.0781       8922.6404      23.281063      20.161992      19.008908      11.640531      11.640531      6.7206639    
   1994000   295.32492     -1439.6436      19.506782      1518.1054      8906.1595      23.26672       20.14957       18.997197      11.63336       11.63336       6.7165234    
   1994100   299.87137     -1439.9378      19.807084      2391.0133      8898.1628      23.259754      20.143538      18.991509      11.629877      11.629877      6.7145126    
   1994200   315.92917     -1441.0016      20.867732      86.474099      8908.7384      23.268965      20.151515      18.99903       11.634483      11.634483      6.7171717    
   1994300   300.15541     -1439.9734      19.825845      497.97417      8911.7966      23.271628      20.153821      19.001204      11.635814      11.635814      6.7179402    
   1994400   307.59828     -1440.461       20.317461     -1156.1628      8922.4172      23.280869      20.161824      19.008749      11.640434      11.640434      6.7206078    
   1994500   288.77566     -1439.2161      19.074191     -953.91009      8929.4515      23.286985      20.167121      19.013743      11.643493      11.643493      6.7223735    
   1994600   309.02611     -1440.5563      20.411772     -1160.8951      8922.754       23.281161      20.162077      19.008988      11.640581      11.640581      6.7206924    
   1994700   304.44997     -1440.2604      20.109509      2084.022       8898.61        23.260144      20.143875      18.991827      11.630072      11.630072      6.7146251    
   1994800   290.47112     -1439.3323      19.186179      4199.027       8887.8643      23.250777      20.135764      18.98418       11.625389      11.625389      6.7119212    
   1994900   300.93848     -1440.0491      19.877568     -432.12267      8918.8774      23.277789      20.159157      19.006235      11.638895      11.638895      6.719719     
   1995000   295.75825     -1439.701       19.535405     -1985.0007      8933.3111      23.29034       20.170026      19.016482      11.64517       11.64517       6.7233419    
   1995100   299.06472     -1439.9057      19.753803     -1306.0675      8927.7618      23.285516      20.165848      19.012544      11.642758      11.642758      6.7219495    
   1995200   314.28781     -1440.9071      20.759317     -904.20837      8917.5947      23.276673      20.15819       19.005324      11.638337      11.638337      6.7193968    
   1995300   301.18282     -1440.0411      19.893708      1432.3609      8903.3961      23.264313      20.147486      18.995232      11.632157      11.632157      6.7158287    
   1995400   300.17666     -1439.966       19.827249      1574.1356      8903.878       23.264733      20.14785       18.995574      11.632366      11.632366      6.7159499    
   1995500   309.04584     -1440.544       20.413076     -232.7115       8914.0903      23.273624      20.15555       19.002834      11.636812      11.636812      6.7185165    
   1995600   297.31165     -1439.7673      19.638009      1461.2174      8905.7959      23.266403      20.149296      18.996938      11.633202      11.633202      6.716432     
   1995700   314.5783      -1440.9079      20.778505     -355.86055      8913.5414      23.273146      20.155136      19.002444      11.636573      11.636573      6.7183786    
   1995800   311.05089     -1440.679       20.545513      63.412678      8910.1407      23.270186      20.152572      19.000027      11.635093      11.635093      6.7175241    
   1995900   300.89749     -1440.0083      19.874861      2722.2932      8893.2864      23.255504      20.139858      18.988039      11.627752      11.627752      6.7132858    
   1996000   309.68321     -1440.6209      20.455175      1221.6035      8901.8163      23.262937      20.146294      18.994108      11.631469      11.631469      6.7154315    
   1996100   299.20978     -1439.9211      19.763385     -853.1781       8923.1356      23.281493      20.162365      19.009259      11.640747      11.640747      6.7207882    
   1996200   290.2707      -1439.3165      19.172941      50.989212      8921.0714      23.279698      20.16081       19.007793      11.639849      11.639849      6.7202699    
   1996300   283.96632     -1438.9115      18.756524      338.60701      8919.3928      23.278238      20.159545      19.006601      11.639119      11.639119      6.7198484    
   1996400   289.85058     -1439.2972      19.145191     -861.04916      8927.1758      23.285007      20.165407      19.012128      11.642503      11.642503      6.7218024    
   1996500   297.68353     -1439.8066      19.662573     -2369.0441      8936.923       23.293478      20.172744      19.019045      11.646739      11.646739      6.7242479    
   1996600   275.25815     -1438.3281      18.181333     -762.93825      8933.5616      23.290557      20.170214      19.01666       11.645279      11.645279      6.7234048    
   1996700   290.93913     -1439.3687      19.217092     -1426.8412      8931.7007      23.28894       20.168814      19.015339      11.64447       11.64447       6.7229379    
   1996800   292.80511     -1439.4838      19.340344      649.48884      8914.3801      23.273876      20.155768      19.00304       11.636938      11.636938      6.7185893    
   1996900   286.59707     -1439.0716      18.930291      1795.8107      8907.3183      23.267729      20.150444      18.998021      11.633864      11.633864      6.7168147    
   1997000   306.21589     -1440.3664      20.226151     -1040.5038      8921.6954      23.280241      20.16128       19.008237      11.64012       11.64012       6.7204266    
   1997100   299.73585     -1439.9377      19.798133      480.83083      8912.8141      23.272513      20.154588      19.001927      11.636257      11.636257      6.7181959    
   1997200   313.30825     -1440.8395      20.694616     -1246.1025      8920.5895      23.279279      20.160447      19.007451      11.639639      11.639639      6.7201489    
   1997300   303.03033     -1440.1607      20.01574       1233.8332      8904.8116      23.265546      20.148554      18.996238      11.632773      11.632773      6.7161846    
   1997400   291.59164     -1439.4084      19.260192      4093.4189      8887.6499      23.25059       20.135602      18.984027      11.625295      11.625295      6.7118673    
   1997500   310.96597     -1440.7004      20.539904     -492.38785      8913.537       23.273142      20.155133      19.002441      11.636571      11.636571      6.7183775    
   1997600   299.37591     -1439.9214      19.774358      505.53613      8911.13        23.271047      20.153318      19.00073       11.635524      11.635524      6.7177727    
   1997700   299.88165     -1439.9545      19.807763     -2014.8969      8932.7879      23.289885      20.169632      19.016111      11.644942      11.644942      6.7232107    
   1997800   294.18097     -1439.582       19.431222     -1563.8403      8932.04        23.289235      20.169069      19.01558       11.644617      11.644617      6.723023     
   1997900   298.9057      -1439.9085      19.743299      825.06543      8910.3884      23.270402      20.152759      19.000203      11.635201      11.635201      6.7175863    
   1998000   295.10654     -1439.645       19.492358      4107.9452      8885.6822      23.248874      20.134116      18.982626      11.624437      11.624437      6.7113719    
   1998100   306.00545     -1440.373       20.212251      2374.3555      8896.5892      23.258383      20.14235       18.99039       11.629191      11.629191      6.7141168    
   1998200   297.82602     -1439.8266      19.671985     -93.156555      8917.4717      23.276566      20.158098      19.005236      11.638283      11.638283      6.7193659    
   1998300   284.33774     -1438.9424      18.781058     -1420.7469      8934.551       23.291417      20.170959      19.017362      11.645709      11.645709      6.723653     
   1998400   296.5971      -1439.7425      19.590812     -2682.5538      8939.5189      23.295733      20.174697      19.020886      11.647867      11.647867      6.7248989    
   1998500   292.9251      -1439.4934      19.348269     -506.11176      8924.2032      23.282422      20.163169      19.010017      11.641211      11.641211      6.7210562    
   1998600   279.53969     -1438.6075      18.464137      1069.766       8917.7193      23.276782      20.158284      19.005412      11.638391      11.638391      6.7194281    
   1998700   294.85232     -1439.618       19.475566      324.08542      8915.134       23.274532      20.156336      19.003575      11.637266      11.637266      6.7187787    
   1998800   302.44141     -1440.1065      19.97684       964.51002      8907.2368      23.267658      20.150383      18.997963      11.633829      11.633829      6.7167943    
   1998900   302.88574     -1440.1361      20.006189     -826.59719      8921.2554      23.279858      20.160948      19.007924      11.639929      11.639929      6.7203161    
   1999000   298.80511     -1439.8576      19.736655     -1873.8114      8931.3053      23.288596      20.168516      19.015059      11.644298      11.644298      6.7228387    
   1999100   292.06582     -1439.4057      19.291512      797.28275      8913.4595      23.273075      20.155074      19.002386      11.636537      11.636537      6.718358     
   1999200   290.92275     -1439.3262      19.21601      -32.506568      8920.5985      23.279287      20.160454      19.007457      11.639643      11.639643      6.7201512    
   1999300   295.53785     -1439.6258      19.520847     -317.53876      8921.4608      23.280037      20.161103      19.00807       11.640018      11.640018      6.7203677    
   1999400   296.05753     -1439.6597      19.555172     -753.84291      8923.0647      23.281432      20.162311      19.009209      11.640716      11.640716      6.7207704    
   1999500   303.75823     -1440.1636      20.063818     -948.65509      8922.9127      23.281299      20.162197      19.009101      11.64065       11.64065       6.7207323    
   1999600   298.15052     -1439.801       19.693419      1062.2124      8908.2069      23.268503      20.151114      18.998652      11.634251      11.634251      6.7170381    
   1999700   307.3611      -1440.4051      20.301795      1720.8603      8899.7741      23.261158      20.144754      18.992655      11.630579      11.630579      6.7149179    
   1999800   316.96455     -1441.0358      20.936122     -403.78436      8911.6999      23.271543      20.153748      19.001135      11.635772      11.635772      6.7179159    
   1999900   295.26004     -1439.6051      19.502497      1433.2849      8908.276       23.268563      20.151166      18.998701      11.634281      11.634281      6.7170555    
   2000000   289.86388     -1439.2718      19.14607       1007.7651      8913.466       23.273081      20.155079      19.00239       11.63654       11.63654       6.7183597    
Loop time of 1887.87 on 4 procs for 2000000 steps with 512 atoms

Performance: 183.064 ns/day, 0.131 hours/ns, 1059.395 timesteps/s, 542.410 katom-step/s
94.8% CPU use with 1 MPI tasks x 4 OpenMP threads

MPI task timing breakdown:
Section |  min time  |  avg time  |  max time  |%varavg| %total
---------------------------------------------------------------
Pair    | 1646.2     | 1646.2     | 1646.2     |   0.0 | 87.20
Neigh   | 0.000892   | 0.000892   | 0.000892   |   0.0 |  0.00
Comm    | 18.056     | 18.056     | 18.056     |   0.0 |  0.96
Output  | 0.34096    | 0.34096    | 0.34096    |   0.0 |  0.02
Modify  | 219.96     | 219.96     | 219.96     |   0.0 | 11.65
Other   |            | 3.285      |            |       |  0.17

Nlocal:            512 ave         512 max         512 min
Histogram: 1 0 0 0 0 0 0 0 0 0
Nghost:           2863 ave        2863 max        2863 min
Histogram: 1 0 0 0 0 0 0 0 0 0
Neighs:          34253 ave       34253 max       34253 min
Histogram: 1 0 0 0 0 0 0 0 0 0

Total # of neighbors = 34253
Ave neighs/atom = 66.900391
Neighbor list builds = 2
Dangerous builds = 0
write_restart Restart.final
System init for write_restart ...
No /omp style for force computation currently active
Total wall time: 0:31:27
