ITEM: TIMESTEP
0
ITEM: NUMBER OF ATOMS
512
ITEM: BOX BOUNDS xy xz yz pp pp pp
0.0000000000000000e+00 4.6228203219999997e+01 1.1557050800000001e+01
0.0000000000000000e+00 2.6689865579999999e+01 1.1557050800000001e+01
0.0000000000000000e+00 1.8872584490000001e+01 6.6724663900000003e+00
ITEM: ATOMS id type xs ys zs
1 1 0 0 0
2 1 0.125004 0 0
3 1 0.250007 0 0
4 1 0.375011 0 0
5 1 0.500014 0 0
6 1 0.625018 0 0
7 1 0.750022 0 0
8 1 0.875025 0 0
9 1 1 0.125004 0
10 1 0.125004 0.125004 0
11 1 0.250007 0.125004 0
12 1 0.375011 0.125004 0
13 1 0.500014 0.125004 0
14 1 0.625018 0.125004 0
15 1 0.750022 0.125004 0
16 1 0.875025 0.125004 0
17 1 1 0.250007 0
18 1 0.125004 0.250007 0
19 1 0.250007 0.250007 0
20 1 0.375011 0.250007 0
21 1 0.500014 0.250007 0
22 1 0.625018 0.250007 0
23 1 0.750022 0.250007 0
24 1 0.875025 0.250007 0
25 1 1 0.375011 0
26 1 0.125004 0.375011 0
27 1 0.250007 0.375011 0
28 1 0.375011 0.375011 0
29 1 0.500014 0.375011 0
30 1 0.625018 0.375011 0
31 1 0.750022 0.375011 0
32 1 0.875025 0.375011 0
33 1 5.51848e-10 0.500014 0
34 1 0.125004 0.500014 0
35 1 0.250007 0.500014 0
36 1 0.375011 0.500014 0
37 1 0.500014 0.500014 0
38 1 0.625018 0.500014 0
39 1 0.750022 0.500014 0
40 1 0.875025 0.500014 0
41 1 1 0.625018 0
42 1 0.125004 0.625018 0
43 1 0.250007 0.625018 0
44 1 0.375011 0.625018 0
45 1 0.500014 0.625018 0
46 1 0.625018 0.625018 0
47 1 0.750022 0.625018 0
48 1 0.875025 0.625018 0
49 1 1.78817e-10 0.750022 0
50 1 0.125004 0.750022 0
51 1 0.250007 0.750022 0
52 1 0.375011 0.750022 0
53 1 0.500014 0.750022 0
54 1 0.625018 0.750022 0
55 1 0.750022 0.750022 0
56 1 0.875025 0.750022 0
57 1 3.90225e-10 0.875025 0
58 1 0.125004 0.875025 0
59 1 0.250007 0.875025 0
60 1 0.375011 0.875025 0
61 1 0.500014 0.875025 0
62 1 0.625018 0.875025 0
63 1 0.750022 0.875025 0
64 1 0.875025 0.875025 0
65 1 1 1 0.125004
66 1 0.125004 1 0.125004
67 1 0.250007 1 0.125004
68 1 0.375011 1 0.125004
69 1 0.500014 1 0.125004
70 1 0.625018 1 0.125004
71 1 0.750022 1 0.125004
72 1 0.875025 1 0.125004
73 1 1 0.125004 0.125004
74 1 0.125004 0.125004 0.125004
75 1 0.250007 0.125004 0.125004
76 1 0.375011 0.125004 0.125004
77 1 0.500014 0.125004 0.125004
78 1 0.625018 0.125004 0.125004
79 1 0.750022 0.125004 0.125004
80 1 0.875025 0.125004 0.125004
81 1 1 0.250007 0.125004
82 1 0.125004 0.250007 0.125004
83 1 0.250007 0.250007 0.125004
84 1 0.375011 0.250007 0.125004
85 1 0.500014 0.250007 0.125004
86 1 0.625018 0.250007 0.125004
87 1 0.750022 0.250007 0.125004
88 1 0.875025 0.250007 0.125004
89 1 1 0.375011 0.125004
90 1 0.125004 0.375011 0.125004
91 1 0.250007 0.375011 0.125004
92 1 0.375011 0.375011 0.125004
93 1 0.500014 0.375011 0.125004
94 1 0.625018 0.375011 0.125004
95 1 0.750022 0.375011 0.125004
96 1 0.875025 0.375011 0.125004
97 1 1 0.500014 0.125004
98 1 0.125004 0.500014 0.125004
99 1 0.250007 0.500014 0.125004
100 1 0.375011 0.500014 0.125004
101 1 0.500014 0.500014 0.125004
102 1 0.625018 0.500014 0.125004
103 1 0.750022 0.500014 0.125004
104 1 0.875025 0.500014 0.125004
105 1 1 0.625018 0.125004
106 1 0.125004 0.625018 0.125004
107 1 0.250007 0.625018 0.125004
108 1 0.375011 0.625018 0.125004
109 1 0.500014 0.625018 0.125004
110 1 0.625018 0.625018 0.125004
111 1 0.750022 0.625018 0.125004
112 1 0.875025 0.625018 0.125004
113 1 1 0.750022 0.125004
114 1 0.125004 0.750022 0.125004
115 1 0.250007 0.750022 0.125004
116 1 0.375011 0.750022 0.125004
117 1 0.500014 0.750022 0.125004
118 1 0.625018 0.750022 0.125004
119 1 0.750022 0.750022 0.125004
120 1 0.875025 0.750022 0.125004
121 1 1 0.875025 0.125004
122 1 0.125004 0.875025 0.125004
123 1 0.250007 0.875025 0.125004
124 1 0.375011 0.875025 0.125004
125 1 0.500014 0.875025 0.125004
126 1 0.625018 0.875025 0.125004
127 1 0.750022 0.875025 0.125004
128 1 0.875025 0.875025 0.125004
129 1 1 1 0.250007
130 1 0.125004 1 0.250007
131 1 0.250007 1 0.250007
132 1 0.375011 1 0.250007
133 1 0.500014 1 0.250007
134 1 0.625018 1 0.250007
135 1 0.750022 1 0.250007
136 1 0.875025 1 0.250007
137 1 1 0.125004 0.250007
138 1 0.125004 0.125004 0.250007
139 1 0.250007 0.125004 0.250007
140 1 0.375011 0.125004 0.250007
141 1 0.500014 0.125004 0.250007
142 1 0.625018 0.125004 0.250007
143 1 0.750022 0.125004 0.250007
144 1 0.875025 0.125004 0.250007
145 1 1 0.250007 0.250007
146 1 0.125004 0.250007 0.250007
147 1 0.250007 0.250007 0.250007
148 1 0.375011 0.250007 0.250007
149 1 0.500014 0.250007 0.250007
150 1 0.625018 0.250007 0.250007
151 1 0.750022 0.250007 0.250007
152 1 0.875025 0.250007 0.250007
153 1 1 0.375011 0.250007
154 1 0.125004 0.375011 0.250007
155 1 0.250007 0.375011 0.250007
156 1 0.375011 0.375011 0.250007
157 1 0.500014 0.375011 0.250007
158 1 0.625018 0.375011 0.250007
159 1 0.750022 0.375011 0.250007
160 1 0.875025 0.375011 0.250007
161 1 1 0.500014 0.250007
162 1 0.125004 0.500014 0.250007
163 1 0.250007 0.500014 0.250007
164 1 0.375011 0.500014 0.250007
165 1 0.500014 0.500014 0.250007
166 1 0.625018 0.500014 0.250007
167 1 0.750022 0.500014 0.250007
168 1 0.875025 0.500014 0.250007
169 1 1 0.625018 0.250007
170 1 0.125004 0.625018 0.250007
171 1 0.250007 0.625018 0.250007
172 1 0.375011 0.625018 0.250007
173 1 0.500014 0.625018 0.250007
174 1 0.625018 0.625018 0.250007
175 1 0.750022 0.625018 0.250007
176 1 0.875025 0.625018 0.250007
177 1 1 0.750022 0.250007
178 1 0.125004 0.750022 0.250007
179 1 0.250007 0.750022 0.250007
180 1 0.375011 0.750022 0.250007
181 1 0.500014 0.750022 0.250007
182 1 0.625018 0.750022 0.250007
183 1 0.750022 0.750022 0.250007
184 1 0.875025 0.750022 0.250007
185 1 1 0.875025 0.250007
186 1 0.125004 0.875025 0.250007
187 1 0.250007 0.875025 0.250007
188 1 0.375011 0.875025 0.250007
189 1 0.500014 0.875025 0.250007
190 1 0.625018 0.875025 0.250007
191 1 0.750022 0.875025 0.250007
192 1 0.875025 0.875025 0.250007
193 1 1 1 0.375011
194 1 0.125004 1 0.375011
195 1 0.250007 1 0.375011
196 1 0.375011 1 0.375011
197 1 0.500014 1 0.375011
198 1 0.625018 1 0.375011
199 1 0.750022 1 0.375011
200 1 0.875025 1 0.375011
201 1 1 0.125004 0.375011
202 1 0.125004 0.125004 0.375011
203 1 0.250007 0.125004 0.375011
204 1 0.375011 0.125004 0.375011
205 1 0.500014 0.125004 0.375011
206 1 0.625018 0.125004 0.375011
207 1 0.750022 0.125004 0.375011
208 1 0.875025 0.125004 0.375011
209 1 1 0.250007 0.375011
210 1 0.125004 0.250007 0.375011
211 1 0.250007 0.250007 0.375011
212 1 0.375011 0.250007 0.375011
213 1 0.500014 0.250007 0.375011
214 1 0.625018 0.250007 0.375011
215 1 0.750022 0.250007 0.375011
216 1 0.875025 0.250007 0.375011
217 1 1 0.375011 0.375011
218 1 0.125004 0.375011 0.375011
219 1 0.250007 0.375011 0.375011
220 1 0.375011 0.375011 0.375011
221 1 0.500014 0.375011 0.375011
222 1 0.625018 0.375011 0.375011
223 1 0.750022 0.375011 0.375011
224 1 0.875025 0.375011 0.375011
225 1 1 0.500014 0.375011
226 1 0.125004 0.500014 0.375011
227 1 0.250007 0.500014 0.375011
228 1 0.375011 0.500014 0.375011
229 1 0.500014 0.500014 0.375011
230 1 0.625018 0.500014 0.375011
231 1 0.750022 0.500014 0.375011
232 1 0.875025 0.500014 0.375011
233 1 1 0.625018 0.375011
234 1 0.125004 0.625018 0.375011
235 1 0.250007 0.625018 0.375011
236 1 0.375011 0.625018 0.375011
237 1 0.500014 0.625018 0.375011
238 1 0.625018 0.625018 0.375011
239 1 0.750022 0.625018 0.375011
240 1 0.875025 0.625018 0.375011
241 1 1 0.750022 0.375011
242 1 0.125004 0.750022 0.375011
243 1 0.250007 0.750022 0.375011
244 1 0.375011 0.750022 0.375011
245 1 0.500014 0.750022 0.375011
246 1 0.625018 0.750022 0.375011
247 1 0.750022 0.750022 0.375011
248 1 0.875025 0.750022 0.375011
249 1 1 0.875025 0.375011
250 1 0.125004 0.875025 0.375011
251 1 0.250007 0.875025 0.375011
252 1 0.375011 0.875025 0.375011
253 1 0.500014 0.875025 0.375011
254 1 0.625018 0.875025 0.375011
255 1 0.750022 0.875025 0.375011
256 1 0.875025 0.875025 0.375011
257 1 1 1 0.500014
258 1 0.125004 1 0.500014
259 1 0.250007 1 0.500014
260 1 0.375011 1 0.500014
261 1 0.500014 1 0.500014
262 1 0.625018 1 0.500014
263 1 0.750022 1 0.500014
264 1 0.875025 1 0.500014
265 1 1 0.125004 0.500014
266 1 0.125004 0.125004 0.500014
267 1 0.250007 0.125004 0.500014
268 1 0.375011 0.125004 0.500014
269 1 0.500014 0.125004 0.500014
270 1 0.625018 0.125004 0.500014
271 1 0.750022 0.125004 0.500014
272 1 0.875025 0.125004 0.500014
273 1 1 0.250007 0.500014
274 1 0.125004 0.250007 0.500014
275 1 0.250007 0.250007 0.500014
276 1 0.375011 0.250007 0.500014
277 1 0.500014 0.250007 0.500014
278 1 0.625018 0.250007 0.500014
279 1 0.750022 0.250007 0.500014
280 1 0.875025 0.250007 0.500014
281 1 1 0.375011 0.500014
282 1 0.125004 0.375011 0.500014
283 1 0.250007 0.375011 0.500014
284 1 0.375011 0.375011 0.500014
285 1 0.500014 0.375011 0.500014
286 1 0.625018 0.375011 0.500014
287 1 0.750022 0.375011 0.500014
288 1 0.875025 0.375011 0.500014
289 1 1 0.500014 0.500014
290 1 0.125004 0.500014 0.500014
291 1 0.250007 0.500014 0.500014
292 1 0.375011 0.500014 0.500014
293 1 0.500014 0.500014 0.500014
294 1 0.625018 0.500014 0.500014
295 1 0.750022 0.500014 0.500014
296 1 0.875025 0.500014 0.500014
297 1 1 0.625018 0.500014
298 1 0.125004 0.625018 0.500014
299 1 0.250007 0.625018 0.500014
300 1 0.375011 0.625018 0.500014
301 1 0.500014 0.625018 0.500014
302 1 0.625018 0.625018 0.500014
303 1 0.750022 0.625018 0.500014
304 1 0.875025 0.625018 0.500014
305 1 1 0.750022 0.500014
306 1 0.125004 0.750022 0.500014
307 1 0.250007 0.750022 0.500014
308 1 0.375011 0.750022 0.500014
309 1 0.500014 0.750022 0.500014
310 1 0.625018 0.750022 0.500014
311 1 0.750022 0.750022 0.500014
312 1 0.875025 0.750022 0.500014
313 1 1 0.875025 0.500014
314 1 0.125004 0.875025 0.500014
315 1 0.250007 0.875025 0.500014
316 1 0.375011 0.875025 0.500014
317 1 0.500014 0.875025 0.500014
318 1 0.625018 0.875025 0.500014
319 1 0.750022 0.875025 0.500014
320 1 0.875025 0.875025 0.500014
321 1 1 1 0.625018
322 1 0.125004 1 0.625018
323 1 0.250007 1 0.625018
324 1 0.375011 1 0.625018
325 1 0.500014 1 0.625018
326 1 0.625018 1 0.625018
327 1 0.750022 1 0.625018
328 1 0.875025 1 0.625018
329 1 1 0.125004 0.625018
330 1 0.125004 0.125004 0.625018
331 1 0.250007 0.125004 0.625018
332 1 0.375011 0.125004 0.625018
333 1 0.500014 0.125004 0.625018
334 1 0.625018 0.125004 0.625018
335 1 0.750022 0.125004 0.625018
336 1 0.875025 0.125004 0.625018
337 1 1 0.250007 0.625018
338 1 0.125004 0.250007 0.625018
339 1 0.250007 0.250007 0.625018
340 1 0.375011 0.250007 0.625018
341 1 0.500014 0.250007 0.625018
342 1 0.625018 0.250007 0.625018
343 1 0.750022 0.250007 0.625018
344 1 0.875025 0.250007 0.625018
345 1 1 0.375011 0.625018
346 1 0.125004 0.375011 0.625018
347 1 0.250007 0.375011 0.625018
348 1 0.375011 0.375011 0.625018
349 1 0.500014 0.375011 0.625018
350 1 0.625018 0.375011 0.625018
351 1 0.750022 0.375011 0.625018
352 1 0.875025 0.375011 0.625018
353 1 1 0.500014 0.625018
354 1 0.125004 0.500014 0.625018
355 1 0.250007 0.500014 0.625018
356 1 0.375011 0.500014 0.625018
357 1 0.500014 0.500014 0.625018
358 1 0.625018 0.500014 0.625018
359 1 0.750022 0.500014 0.625018
360 1 0.875025 0.500014 0.625018
361 1 1 0.625018 0.625018
362 1 0.125004 0.625018 0.625018
363 1 0.250007 0.625018 0.625018
364 1 0.375011 0.625018 0.625018
365 1 0.500014 0.625018 0.625018
366 1 0.625018 0.625018 0.625018
367 1 0.750022 0.625018 0.625018
368 1 0.875025 0.625018 0.625018
369 1 1 0.750022 0.625018
370 1 0.125004 0.750022 0.625018
371 1 0.250007 0.750022 0.625018
372 1 0.375011 0.750022 0.625018
373 1 0.500014 0.750022 0.625018
374 1 0.625018 0.750022 0.625018
375 1 0.750022 0.750022 0.625018
376 1 0.875025 0.750022 0.625018
377 1 1 0.875025 0.625018
378 1 0.125004 0.875025 0.625018
379 1 0.250007 0.875025 0.625018
380 1 0.375011 0.875025 0.625018
381 1 0.500014 0.875025 0.625018
382 1 0.625018 0.875025 0.625018
383 1 0.750022 0.875025 0.625018
384 1 0.875025 0.875025 0.625018
385 1 1 1 0.750022
386 1 0.125004 1 0.750022
387 1 0.250007 1 0.750022
388 1 0.375011 1 0.750022
389 1 0.500014 1 0.750022
390 1 0.625018 1 0.750022
391 1 0.750022 1 0.750022
392 1 0.875025 1 0.750022
393 1 1 0.125004 0.750022
394 1 0.125004 0.125004 0.750022
395 1 0.250007 0.125004 0.750022
396 1 0.375011 0.125004 0.750022
397 1 0.500014 0.125004 0.750022
398 1 0.625018 0.125004 0.750022
399 1 0.750022 0.125004 0.750022
400 1 0.875025 0.125004 0.750022
401 1 1 0.250007 0.750022
402 1 0.125004 0.250007 0.750022
403 1 0.250007 0.250007 0.750022
404 1 0.375011 0.250007 0.750022
405 1 0.500014 0.250007 0.750022
406 1 0.625018 0.250007 0.750022
407 1 0.750022 0.250007 0.750022
408 1 0.875025 0.250007 0.750022
409 1 1 0.375011 0.750022
410 1 0.125004 0.375011 0.750022
411 1 0.250007 0.375011 0.750022
412 1 0.375011 0.375011 0.750022
413 1 0.500014 0.375011 0.750022
414 1 0.625018 0.375011 0.750022
415 1 0.750022 0.375011 0.750022
416 1 0.875025 0.375011 0.750022
417 1 1 0.500014 0.750022
418 1 0.125004 0.500014 0.750022
419 1 0.250007 0.500014 0.750022
420 1 0.375011 0.500014 0.750022
421 1 0.500014 0.500014 0.750022
422 1 0.625018 0.500014 0.750022
423 1 0.750022 0.500014 0.750022
424 1 0.875025 0.500014 0.750022
425 1 1 0.625018 0.750022
426 1 0.125004 0.625018 0.750022
427 1 0.250007 0.625018 0.750022
428 1 0.375011 0.625018 0.750022
429 1 0.500014 0.625018 0.750022
430 1 0.625018 0.625018 0.750022
431 1 0.750022 0.625018 0.750022
432 1 0.875025 0.625018 0.750022
433 1 1 0.750022 0.750022
434 1 0.125004 0.750022 0.750022
435 1 0.250007 0.750022 0.750022
436 1 0.375011 0.750022 0.750022
437 1 0.500014 0.750022 0.750022
438 1 0.625018 0.750022 0.750022
439 1 0.750022 0.750022 0.750022
440 1 0.875025 0.750022 0.750022
441 1 1 0.875025 0.750022
442 1 0.125004 0.875025 0.750022
443 1 0.250007 0.875025 0.750022
444 1 0.375011 0.875025 0.750022
445 1 0.500014 0.875025 0.750022
446 1 0.625018 0.875025 0.750022
447 1 0.750022 0.875025 0.750022
448 1 0.875025 0.875025 0.750022
449 1 1 1 0.875025
450 1 0.125004 1 0.875025
451 1 0.250007 1 0.875025
452 1 0.375011 1 0.875025
453 1 0.500014 1 0.875025
454 1 0.625018 1 0.875025
455 1 0.750022 1 0.875025
456 1 0.875025 1 0.875025
457 1 1 0.125004 0.875025
458 1 0.125004 0.125004 0.875025
459 1 0.250007 0.125004 0.875025
460 1 0.375011 0.125004 0.875025
461 1 0.500014 0.125004 0.875025
462 1 0.625018 0.125004 0.875025
463 1 0.750022 0.125004 0.875025
464 1 0.875025 0.125004 0.875025
465 1 1 0.250007 0.875025
466 1 0.125004 0.250007 0.875025
467 1 0.250007 0.250007 0.875025
468 1 0.375011 0.250007 0.875025
469 1 0.500014 0.250007 0.875025
470 1 0.625018 0.250007 0.875025
471 1 0.750022 0.250007 0.875025
472 1 0.875025 0.250007 0.875025
473 1 1 0.375011 0.875025
474 1 0.125004 0.375011 0.875025
475 1 0.250007 0.375011 0.875025
476 1 0.375011 0.375011 0.875025
477 1 0.500014 0.375011 0.875025
478 1 0.625018 0.375011 0.875025
479 1 0.750022 0.375011 0.875025
480 1 0.875025 0.375011 0.875025
481 1 1 0.500014 0.875025
482 1 0.125004 0.500014 0.875025
483 1 0.250007 0.500014 0.875025
484 1 0.375011 0.500014 0.875025
485 1 0.500014 0.500014 0.875025
486 1 0.625018 0.500014 0.875025
487 1 0.750022 0.500014 0.875025
488 1 0.875025 0.500014 0.875025
489 1 1 0.625018 0.875025
490 1 0.125004 0.625018 0.875025
491 1 0.250007 0.625018 0.875025
492 1 0.375011 0.625018 0.875025
493 1 0.500014 0.625018 0.875025
494 1 0.625018 0.625018 0.875025
495 1 0.750022 0.625018 0.875025
496 1 0.875025 0.625018 0.875025
497 1 1 0.750022 0.875025
498 1 0.125004 0.750022 0.875025
499 1 0.250007 0.750022 0.875025
500 1 0.375011 0.750022 0.875025
501 1 0.500014 0.750022 0.875025
502 1 0.625018 0.750022 0.875025
503 1 0.750022 0.750022 0.875025
504 1 0.875025 0.750022 0.875025
505 1 1 0.875025 0.875025
506 1 0.125004 0.875025 0.875025
507 1 0.250007 0.875025 0.875025
508 1 0.375011 0.875025 0.875025
509 1 0.500014 0.875025 0.875025
510 1 0.625018 0.875025 0.875025
511 1 0.750022 0.875025 0.875025
512 1 0.875025 0.875025 0.875025
ITEM: TIMESTEP
50000
ITEM: NUMBER OF ATOMS
512
ITEM: BOX BOUNDS xy xz yz pp pp pp
-8.4491680238135913e-02 4.6481678260567939e+01 1.1641542480164999e+01
-7.3171941499493798e-02 2.6811818815784520e+01 1.1641542480164999e+01
-6.8987166372135533e-02 1.8941571656372368e+01 6.7212476842843776e+00
ITEM: ATOMS id type xs ys zs
1 1 0.00273082 0.00283445 0.00111585
2 1 0.122122 0.000601421 0.00512846
3 1 0.242329 -0.00550155 0.00915502
4 1 0.365861 0.000682229 -0.00497203
5 1 0.486936 0.000803816 0.00134047
6 1 0.617434 -0.00708755 0.00797019
7 1 0.741486 0.00773364 -0.00257709
8 1 0.883935 0.00786083 -0.00810844
9 1 0.994715 0.127455 0.00242414
10 1 0.130893 0.123733 -0.00102842
11 1 0.249942 0.12722 -0.00121979
12 1 0.374315 0.1288 0.00140813
13 1 0.499276 0.121087 -0.00203293
14 1 0.627476 0.126277 0.00340517
15 1 0.743131 0.126474 0.00494774
16 1 0.869901 0.126794 0.00604879
17 1 1.00104 0.245627 0.00496558
18 1 0.119351 0.250915 0.000838881
19 1 0.248611 0.253452 -0.00232703
20 1 0.377158 0.255089 -0.00190952
21 1 0.498241 0.249952 -0.00154585
22 1 0.618057 0.259024 -0.00209811
23 1 0.74647 0.254378 -0.00389402
24 1 0.877888 0.25137 -0.000871564
25 1 0.998122 0.380569 0.00375219
26 1 0.129494 0.375914 -0.00703527
27 1 0.244677 0.382949 0.00344201
28 1 0.369311 0.376651 0.00584355
29 1 0.501255 0.376996 0.00649087
30 1 0.628096 0.388169 -0.0134304
31 1 0.754025 0.366035 0.00297831
32 1 0.873361 0.379169 -0.00443843
33 1 0.00631952 0.502613 -0.00605999
34 1 0.128148 0.501002 -0.00416015
35 1 0.256378 0.504175 -0.00294605
36 1 0.375911 0.50007 -0.00236629
37 1 0.49302 0.503656 -0.00249735
38 1 0.628018 0.502982 0.000311252
39 1 0.753122 0.50715 -0.00567586
40 1 0.884314 0.494469 -0.00214718
41 1 1.00035 0.627074 0.00563673
42 1 0.12455 0.626417 -0.000441399
43 1 0.255003 0.63555 0.000605783
44 1 0.374976 0.630735 -0.003999
45 1 0.503471 0.621702 0.00459663
46 1 0.63059 0.618336 0.00690422
47 1 0.75676 0.624163 0.00276937
48 1 0.880519 0.619913 0.00514709
49 1 0.00280989 0.757902 -0.00242318
50 1 0.121445 0.752748 0.0016185
51 1 0.250256 0.754921 0.00165942
52 1 0.381386 0.743558 0.00197297
53 1 0.505234 0.740572 0.00164808
54 1 0.635581 0.752457 -0.00555715
55 1 0.758598 0.749139 0.0020806
56 1 0.873403 0.756392 0.00348005
57 1 -0.00430821 0.883306 0.00668326
58 1 0.127493 0.878858 0.0026398
59 1 0.258769 0.872771 -0.002062
60 1 0.384742 0.87353 -0.00524643
61 1 0.504923 0.873281 -0.00719056
62 1 0.622413 0.87941 -0.00558985
63 1 0.751976 0.875278 -0.00416397
64 1 0.874716 0.878456 0.00154236
65 1 0.993814 1.00094 0.124585
66 1 0.121612 1.00063 0.130262
67 1 0.241748 1.00054 0.133143
68 1 0.368336 1.00639 0.126661
69 1 0.500789 0.997837 0.125579
70 1 0.622382 1.00009 0.121378
71 1 0.749818 1.00315 0.118492
72 1 0.872489 0.992791 0.125134
73 1 0.996682 0.121665 0.132387
74 1 0.117223 0.134546 0.127972
75 1 0.239674 0.131367 0.12513
76 1 0.372437 0.125099 0.128172
77 1 0.488589 0.130858 0.124888
78 1 0.62136 0.128767 0.12352
79 1 0.747223 0.121437 0.129349
80 1 0.872217 0.122766 0.131926
81 1 0.999856 0.250915 0.129049
82 1 0.125803 0.256241 0.12006
83 1 0.243306 0.252301 0.127375
84 1 0.374966 0.251305 0.12262
85 1 0.496319 0.251696 0.122673
86 1 0.623355 0.25282 0.117845
87 1 0.751991 0.250422 0.120043
88 1 0.871888 0.242135 0.13041
89 1 0.995721 0.387483 0.125531
90 1 0.120269 0.378711 0.120143
91 1 0.240256 0.38035 0.130313
92 1 0.365142 0.377514 0.127368
93 1 0.500263 0.374671 0.127648
94 1 0.622582 0.371843 0.120312
95 1 0.743565 0.376469 0.123471
96 1 0.872223 0.366184 0.125565
97 1 1.00566 0.50015 0.124754
98 1 0.12955 0.502733 0.120885
99 1 0.255769 0.508308 0.121432
100 1 0.381113 0.502647 0.124644
101 1 0.496889 0.503663 0.125492
102 1 0.621992 0.491663 0.13139
103 1 0.759014 0.496993 0.122714
104 1 0.876965 0.501546 0.123099
105 1 1.0007 0.627334 0.129277
106 1 0.126732 0.624692 0.123867
107 1 0.251714 0.629816 0.128104
108 1 0.370522 0.629421 0.124485
109 1 0.497517 0.62148 0.128527
110 1 0.630849 0.620384 0.125568
111 1 0.755265 0.623349 0.12537
112 1 0.875816 0.623867 0.128364
113 1 1.00128 0.751902 0.127759
114 1 0.125322 0.75385 0.124192
115 1 0.249352 0.749238 0.127224
116 1 0.370327 0.747483 0.130941
117 1 0.513727 0.73724 0.115083
118 1 0.627796 0.74886 0.123096
119 1 0.752614 0.746575 0.129205
120 1 0.875106 0.74266 0.129183
121 1 1.00371 0.874712 0.125446
122 1 0.125678 0.874309 0.13047
123 1 0.240154 0.87959 0.136082
124 1 0.371916 0.875976 0.123892
125 1 0.50022 0.873263 0.119875
126 1 0.620782 0.870571 0.129394
127 1 0.751287 0.872871 0.120252
128 1 0.874365 0.868427 0.125132
129 1 0.99172 0.999476 0.254697
130 1 0.119861 1.00849 0.252169
131 1 0.251241 1.00786 0.245529
132 1 0.384229 0.989775 0.251324
133 1 0.496163 0.998307 0.249264
134 1 0.620239 1.00094 0.246455
135 1 0.743234 0.999528 0.249197
136 1 0.870655 0.995623 0.250956
137 1 0.995384 0.123134 0.257681
138 1 0.12556 0.127486 0.256169
139 1 0.247164 0.131265 0.254743
140 1 0.375227 0.123472 0.254454
141 1 0.493877 0.12824 0.254874
142 1 0.622515 0.129064 0.243678
143 1 0.742217 0.125496 0.247586
144 1 0.868504 0.121716 0.255819
145 1 1.00335 0.256176 0.246625
146 1 0.123234 0.254297 0.251907
147 1 0.255038 0.252867 0.245958
148 1 0.38197 0.252454 0.240666
149 1 0.494485 0.253939 0.24799
150 1 0.620697 0.253631 0.246369
151 1 0.743411 0.241708 0.252742
152 1 0.868241 0.253158 0.245399
153 1 0.997791 0.379677 0.246985
154 1 0.124655 0.376122 0.248247
155 1 0.248053 0.374114 0.249564
156 1 0.374001 0.376678 0.245293
157 1 0.49703 0.377881 0.251884
158 1 0.616222 0.370123 0.252968
159 1 0.74711 0.377596 0.24485
160 1 0.869087 0.37529 0.244549
161 1 1.00017 0.500985 0.253242
162 1 0.129636 0.491761 0.250863
163 1 0.250552 0.49988 0.247525
164 1 0.379028 0.498835 0.252118
165 1 0.500395 0.497012 0.248314
166 1 0.626006 0.500139 0.245167
167 1 0.744019 0.506153 0.249371
168 1 0.875641 0.504057 0.245055
169 1 1.0142 0.618935 0.251241
170 1 0.128532 0.627677 0.248092
171 1 0.249405 0.619759 0.258135
172 1 0.370597 0.626812 0.253454
173 1 0.497864 0.621619 0.243709
174 1 0.624296 0.62343 0.244142
175 1 0.757413 0.623492 0.245431
176 1 0.878254 0.624011 0.255238
177 1 1.00544 0.754035 0.252473
178 1 0.127928 0.748159 0.254156
179 1 0.242935 0.752507 0.254747
180 1 0.375213 0.749857 0.253369
181 1 0.502653 0.74073 0.243173
182 1 0.627269 0.744933 0.249936
183 1 0.758181 0.749953 0.242107
184 1 0.884661 0.745461 0.251012
185 1 0.99727 0.882276 0.253684
186 1 0.122405 0.882305 0.253837
187 1 0.252523 0.872259 0.253771
188 1 0.383966 0.872996 0.243346
189 1 0.501664 0.86664 0.251795
190 1 0.630665 0.87819 0.244753
191 1 0.753009 0.867391 0.253664
192 1 0.874781 0.877992 0.244812
193 1 0.998348 1.00084 0.376927
194 1 0.128252 0.999075 0.377023
195 1 0.249761 1.00464 0.371866
196 1 0.370072 1.0009 0.384328
197 1 0.494842 1.00699 0.375395
198 1 0.618 1.01051 0.369089
199 1 0.747977 1.00093 0.375733
200 1 0.86703 0.997377 0.380916
201 1 1.01133 0.121233 0.371587
202 1 0.132504 0.127577 0.37812
203 1 0.250832 0.128975 0.374657
204 1 0.376257 0.11997 0.381494
205 1 0.500722 0.1286 0.369434
206 1 0.628302 0.120867 0.371923
207 1 0.749095 0.116026 0.378187
208 1 0.870298 0.129536 0.375161
209 1 1.00227 0.250494 0.37392
210 1 0.122044 0.248485 0.380238
211 1 0.249253 0.253788 0.36985
212 1 0.368599 0.247735 0.382047
213 1 0.501859 0.246132 0.377167
214 1 0.621812 0.253216 0.368551
215 1 0.750254 0.240368 0.375196
216 1 0.887665 0.241696 0.364479
217 1 1.00043 0.371958 0.379183
218 1 0.129648 0.376606 0.370658
219 1 0.252078 0.377463 0.373654
220 1 0.37479 0.367764 0.37531
221 1 0.50267 0.363649 0.380037
222 1 0.629532 0.369381 0.379393
223 1 0.756003 0.367245 0.374624
224 1 0.881033 0.376006 0.367698
225 1 1.00507 0.495785 0.37864
226 1 0.134705 0.499478 0.371495
227 1 0.252576 0.500731 0.380852
228 1 0.370637 0.501537 0.374192
229 1 0.500247 0.494635 0.379596
230 1 0.630007 0.491287 0.376646
231 1 0.757858 0.495856 0.369404
232 1 0.886875 0.499458 0.371909
233 1 1.00054 0.628028 0.37814
234 1 0.128905 0.62811 0.375186
235 1 0.253416 0.623398 0.37538
236 1 0.375662 0.618941 0.380146
237 1 0.50161 0.619311 0.369806
238 1 0.627686 0.616824 0.365968
239 1 0.753023 0.621073 0.371314
240 1 0.887508 0.622714 0.370896
241 1 1.00399 0.754496 0.380092
242 1 0.124565 0.751693 0.383633
243 1 0.248572 0.752421 0.379158
244 1 0.37529 0.750866 0.375291
245 1 0.507282 0.740026 0.370472
246 1 0.63061 0.744044 0.368056
247 1 0.757934 0.744357 0.372821
248 1 0.876921 0.752561 0.373749
249 1 0.996691 0.873685 0.386133
250 1 0.123601 0.881675 0.374589
251 1 0.252157 0.873413 0.376228
252 1 0.376728 0.877125 0.375701
253 1 0.502781 0.869959 0.368643
254 1 0.623532 0.882897 0.365589
255 1 0.741336 0.877085 0.379008
256 1 0.87284 0.872771 0.37384
257 1 1.00138 1.00137 0.496697
258 1 0.127083 0.999466 0.500069
259 1 0.251514 1.00067 0.49951
260 1 0.37188 0.996637 0.509169
261 1 0.499862 1.00432 0.492537
262 1 0.626914 0.997077 0.502134
263 1 0.750754 0.992714 0.507346
264 1 0.881277 0.994889 0.500389
265 1 1.00092 0.122233 0.498824
266 1 0.125753 0.124217 0.504633
267 1 0.243989 0.118185 0.507509
268 1 0.369911 0.125567 0.5058
269 1 0.497441 0.122174 0.505354
270 1 0.623728 0.122497 0.499605
271 1 0.756559 0.115863 0.498505
272 1 0.880715 0.128017 0.489484
273 1 0.996704 0.249494 0.499551
274 1 0.130843 0.242606 0.500862
275 1 0.252486 0.256978 0.500048
276 1 0.373034 0.244689 0.503753
277 1 0.49549 0.251339 0.503437
278 1 0.621724 0.255558 0.508283
279 1 0.754653 0.246159 0.49584
280 1 0.872527 0.260045 0.494459
281 1 1.00572 0.369256 0.496512
282 1 0.126018 0.370532 0.497056
283 1 0.242888 0.371835 0.51025
284 1 0.368288 0.375867 0.506467
285 1 0.499001 0.37817 0.502014
286 1 0.617601 0.380492 0.502513
287 1 0.755186 0.374288 0.500078
288 1 0.880638 0.377725 0.497638
289 1 1.00003 0.497343 0.497858
290 1 0.127586 0.506285 0.496034
291 1 0.256171 0.501659 0.505131
292 1 0.373991 0.500196 0.497227
293 1 0.49456 0.506194 0.505739
294 1 0.629282 0.498492 0.498788
295 1 0.752646 0.496731 0.499361
296 1 0.882129 0.496211 0.495958
297 1 0.997954 0.622045 0.502643
298 1 0.120319 0.622548 0.503103
299 1 0.25234 0.632274 0.492664
300 1 0.379913 0.629838 0.494732
301 1 0.507413 0.622948 0.494699
302 1 0.62657 0.620504 0.497962
303 1 0.753806 0.616064 0.497899
304 1 0.876568 0.626461 0.501756
305 1 1.00103 0.745243 0.505119
306 1 0.115674 0.752132 0.508223
307 1 0.250856 0.757357 0.498824
308 1 0.382324 0.749438 0.500253
309 1 0.509249 0.743376 0.497122
310 1 0.632887 0.745868 0.497001
311 1 0.752029 0.742811 0.503145
312 1 0.871078 0.747705 0.499836
313 1 0.998181 0.864735 0.512017
314 1 0.132349 0.871424 0.498223
315 1 0.256142 0.879743 0.490408
316 1 0.375944 0.876095 0.498639
317 1 0.503922 0.879049 0.495592
318 1 0.619743 0.879367 0.490962
319 1 0.742726 0.880655 0.500064
320 1 0.86801 0.871372 0.505644
321 1 1.0026 0.996643 0.623003
322 1 0.116515 0.999489 0.633458
323 1 0.248559 1.00001 0.626093
324 1 0.373077 1.00086 0.62406
325 1 0.495105 0.998567 0.63011
326 1 0.628557 0.99798 0.626981
327 1 0.755506 0.995572 0.620336
328 1 0.879161 1.00331 0.624412
329 1 0.996366 0.120606 0.628589
330 1 0.114885 0.123535 0.632734
331 1 0.249932 0.124411 0.623839
332 1 0.373451 0.123582 0.62391
333 1 0.494368 0.126499 0.622458
334 1 0.636937 0.118599 0.622128
335 1 0.755952 0.120205 0.620903
336 1 0.880418 0.126791 0.622247
337 1 0.998739 0.250747 0.618638
338 1 0.121902 0.256623 0.614958
339 1 0.249503 0.251503 0.625323
340 1 0.368155 0.249547 0.626275
341 1 0.493953 0.251337 0.623772
342 1 0.633499 0.252087 0.620924
343 1 0.75317 0.248549 0.619198
344 1 0.870118 0.249861 0.623897
345 1 0.998902 0.376392 0.622906
346 1 0.121563 0.373341 0.623111
347 1 0.248864 0.380536 0.62456
348 1 0.369488 0.378794 0.627934
349 1 0.497097 0.378006 0.627399
350 1 0.633166 0.373518 0.626421
351 1 0.757579 0.367744 0.625417
352 1 0.878975 0.373195 0.619714
353 1 1.0045 0.495223 0.625214
354 1 0.120528 0.494899 0.62547
355 1 0.242639 0.507907 0.626477
356 1 0.366217 0.498799 0.62628
357 1 0.510634 0.490119 0.628935
358 1 0.629113 0.498102 0.623508
359 1 0.741112 0.499409 0.630268
360 1 0.871188 0.496264 0.627873
361 1 0.996666 0.625747 0.630177
362 1 0.11569 0.633455 0.623588
363 1 0.24622 0.6287 0.61723
364 1 0.378787 0.614066 0.62909
365 1 0.498967 0.623266 0.621964
366 1 0.617584 0.629905 0.622351
367 1 0.752995 0.61648 0.625149
368 1 0.868695 0.628961 0.629027
369 1 0.997527 0.748225 0.62818
370 1 0.130953 0.747747 0.627928
371 1 0.257519 0.74767 0.622356
372 1 0.37776 0.749902 0.62262
373 1 0.499836 0.747857 0.618513
374 1 0.627018 0.748266 0.623879
375 1 0.749754 0.747765 0.625236
376 1 0.872221 0.747856 0.626698
377 1 1.0115 0.865769 0.630261
378 1 0.136984 0.868757 0.620425
379 1 0.253882 0.872081 0.629963
380 1 0.385857 0.865864 0.61998
381 1 0.500148 0.882934 0.617245
382 1 0.625227 0.877786 0.6227
383 1 0.744354 0.871305 0.629836
384 1 0.875219 0.871492 0.634093
385 1 0.987273 1.00733 0.752941
386 1 0.123439 1.00118 0.751708
387 1 0.252666 0.995628 0.75495
388 1 0.367438 1.00063 0.753234
389 1 0.494982 0.999691 0.748386
390 1 0.622241 1.00273 0.748311
391 1 0.7521 1.0033 0.74362
392 1 0.871517 1.00026 0.757028
393 1 0.990041 0.131925 0.747936
394 1 0.121059 0.119995 0.753954
395 1 0.240102 0.132063 0.754866