FCC(001) cell with dimension 8 x 8 x 8

512  atoms
  1  atom types

     0.00000000     23.07346744 xlo xhi
     0.00000000     19.98220891 ylo yhi
     0.00000000     18.83940722 zlo zhi
    11.53673386     11.53673386      6.66073630 xy xz yz

Atoms

  1  1   0.00000000     0.0000000000     0.00000000
  2  1   2.88418342     0.0000000000     0.00000000
  3  1   5.76836685     0.0000000000     0.00000000
  4  1   8.65255027     0.0000000000     0.00000000
  5  1   11.53673370     0.0000000000     0.00000000
  6  1   14.42091712     0.0000000000     0.00000000
  7  1   17.30510054     0.0000000000     0.00000000
  8  1   20.18928397     0.0000000000     0.00000000
  9  1   1.44209172     2.4977761236     0.00000000
 10  1   4.32627513     2.4977761236     0.00000000
 11  1   7.21045855     2.4977761236     0.00000000
 12  1   10.09464198     2.4977761236     0.00000000
 13  1   12.97882540     2.4977761236     0.00000000
 14  1   15.86300883     2.4977761236     0.00000000
 15  1   18.74719225     2.4977761236     0.00000000
 16  1   21.63137567     2.4977761236     0.00000000
 17  1   2.88418342     4.9955522371     0.00000000
 18  1   5.76836685     4.9955522371     0.00000000
 19  1   8.65255027     4.9955522371     0.00000000
 20  1   11.53673370     4.9955522371     0.00000000
 21  1   14.42091712     4.9955522371     0.00000000
 22  1   17.30510054     4.9955522371     0.00000000
 23  1   20.18928397     4.9955522371     0.00000000
 24  1   23.07346739     4.9955522371     0.00000000
 25  1   4.32627513     7.4933283507     0.00000000
 26  1   7.21045855     7.4933283507     0.00000000
 27  1   10.09464198     7.4933283507     0.00000000
 28  1   12.97882540     7.4933283507     0.00000000
 29  1   15.86300883     7.4933283507     0.00000000
 30  1   18.74719225     7.4933283507     0.00000000
 31  1   21.63137567     7.4933283507     0.00000000
 32  1   24.51555910     7.4933283507     0.00000000
 33  1   5.76836685     9.9911044642     0.00000000
 34  1   8.65255027     9.9911044642     0.00000000
 35  1   11.53673370     9.9911044642     0.00000000
 36  1   14.42091712     9.9911044642     0.00000000
 37  1   17.30510054     9.9911044642     0.00000000
 38  1   20.18928397     9.9911044642     0.00000000
 39  1   23.07346739     9.9911044642     0.00000000
 40  1   25.95765082     9.9911044642     0.00000000
 41  1   7.21045855     12.4888805878     0.00000000
 42  1   10.09464198     12.4888805878     0.00000000
 43  1   12.97882540     12.4888805878     0.00000000
 44  1   15.86300883     12.4888805878     0.00000000
 45  1   18.74719225     12.4888805878     0.00000000
 46  1   21.63137567     12.4888805878     0.00000000
 47  1   24.51555910     12.4888805878     0.00000000
 48  1   27.39974252     12.4888805878     0.00000000
 49  1   8.65255027     14.9866566813     0.00000000
 50  1   11.53673370     14.9866566813     0.00000000
 51  1   14.42091712     14.9866566813     0.00000000
 52  1   17.30510054     14.9866566813     0.00000000
 53  1   20.18928397     14.9866566813     0.00000000
 54  1   23.07346739     14.9866566813     0.00000000
 55  1   25.95765082     14.9866566813     0.00000000
 56  1   28.84183424     14.9866566813     0.00000000
 57  1   10.09464198     17.4844328049     0.00000000
 58  1   12.97882540     17.4844328049     0.00000000
 59  1   15.86300883     17.4844328049     0.00000000
 60  1   18.74719225     17.4844328049     0.00000000
 61  1   21.63137567     17.4844328049     0.00000000
 62  1   24.51555910     17.4844328049     0.00000000
 63  1   27.39974252     17.4844328049     0.00000000
 64  1   30.28392595     17.4844328049     0.00000000
 65  1   1.44209172     0.8325920479     2.35492590
 66  1   4.32627513     0.8325920479     2.35492590
 67  1   7.21045855     0.8325920479     2.35492590
 68  1   10.09464198     0.8325920479     2.35492590
 69  1   12.97882540     0.8325920479     2.35492590
 70  1   15.86300883     0.8325920479     2.35492590
 71  1   18.74719225     0.8325920479     2.35492590
 72  1   21.63137567     0.8325920479     2.35492590
 73  1   2.88418342     3.3303681514     2.35492590
 74  1   5.76836685     3.3303681514     2.35492590
 75  1   8.65255027     3.3303681514     2.35492590
 76  1   11.53673370     3.3303681514     2.35492590
 77  1   14.42091712     3.3303681514     2.35492590
 78  1   17.30510054     3.3303681514     2.35492590
 79  1   20.18928397     3.3303681514     2.35492590
 80  1   23.07346739     3.3303681514     2.35492590
 81  1   4.32627513     5.8281442750     2.35492590
 82  1   7.21045855     5.8281442750     2.35492590
 83  1   10.09464198     5.8281442750     2.35492590
 84  1   12.97882540     5.8281442750     2.35492590
 85  1   15.86300883     5.8281442750     2.35492590
 86  1   18.74719225     5.8281442750     2.35492590
 87  1   21.63137567     5.8281442750     2.35492590
 88  1   24.51555910     5.8281442750     2.35492590
 89  1   5.76836685     8.3259203885     2.35492590
 90  1   8.65255027     8.3259203885     2.35492590
 91  1   11.53673370     8.3259203885     2.35492590
 92  1   14.42091712     8.3259203885     2.35492590
 93  1   17.30510054     8.3259203885     2.35492590
 94  1   20.18928397     8.3259203885     2.35492590
 95  1   23.07346739     8.3259203885     2.35492590
 96  1   25.95765082     8.3259203885     2.35492590
 97  1   7.21045855     10.8236965021     2.35492590
 98  1   10.09464198     10.8236965021     2.35492590
 99  1   12.97882540     10.8236965021     2.35492590
100  1   15.86300883     10.8236965021     2.35492590
101  1   18.74719225     10.8236965021     2.35492590
102  1   21.63137567     10.8236965021     2.35492590
103  1   24.51555910     10.8236965021     2.35492590
104  1   27.39974252     10.8236965021     2.35492590
105  1   8.65255027     13.3214726156     2.35492590
106  1   11.53673370     13.3214726156     2.35492590
107  1   14.42091712     13.3214726156     2.35492590
108  1   17.30510054     13.3214726156     2.35492590
109  1   20.18928397     13.3214726156     2.35492590
110  1   23.07346739     13.3214726156     2.35492590
111  1   25.95765082     13.3214726156     2.35492590
112  1   28.84183424     13.3214726156     2.35492590
113  1   10.09464198     15.8192487392     2.35492590
114  1   12.97882540     15.8192487392     2.35492590
115  1   15.86300883     15.8192487392     2.35492590
116  1   18.74719225     15.8192487392     2.35492590
117  1   21.63137567     15.8192487392     2.35492590
118  1   24.51555910     15.8192487392     2.35492590
119  1   27.39974252     15.8192487392     2.35492590
120  1   30.28392595     15.8192487392     2.35492590
121  1   11.53673370     18.3170248427     2.35492590
122  1   14.42091712     18.3170248427     2.35492590
123  1   17.30510054     18.3170248427     2.35492590
124  1   20.18928397     18.3170248427     2.35492590
125  1   23.07346739     18.3170248427     2.35492590
126  1   25.95765082     18.3170248427     2.35492590
127  1   28.84183424     18.3170248427     2.35492590
128  1   31.72601766     18.3170248427     2.35492590
129  1   2.88418342     1.6651840857     4.70985181
130  1   5.76836685     1.6651840857     4.70985181
131  1   8.65255027     1.6651840857     4.70985181
132  1   11.53673370     1.6651840857     4.70985181
133  1   14.42091712     1.6651840857     4.70985181
134  1   17.30510054     1.6651840857     4.70985181
135  1   20.18928397     1.6651840857     4.70985181
136  1   23.07346739     1.6651840857     4.70985181
137  1   4.32627513     4.1629602093     4.70985181
138  1   7.21045855     4.1629602093     4.70985181
139  1   10.09464198     4.1629602093     4.70985181
140  1   12.97882540     4.1629602093     4.70985181
141  1   15.86300883     4.1629602093     4.70985181
142  1   18.74719225     4.1629602093     4.70985181
143  1   21.63137567     4.1629602093     4.70985181
144  1   24.51555910     4.1629602093     4.70985181
145  1   5.76836685     6.6607363028     4.70985181
146  1   8.65255027     6.6607363028     4.70985181
147  1   11.53673370     6.6607363028     4.70985181
148  1   14.42091712     6.6607363028     4.70985181
149  1   17.30510054     6.6607363028     4.70985181
150  1   20.18928397     6.6607363028     4.70985181
151  1   23.07346739     6.6607363028     4.70985181
152  1   25.95765082     6.6607363028     4.70985181
153  1   7.21045855     9.1585124264     4.70985181
154  1   10.09464198     9.1585124264     4.70985181
155  1   12.97882540     9.1585124264     4.70985181
156  1   15.86300883     9.1585124264     4.70985181
157  1   18.74719225     9.1585124264     4.70985181
158  1   21.63137567     9.1585124264     4.70985181
159  1   24.51555910     9.1585124264     4.70985181
160  1   27.39974252     9.1585124264     4.70985181
161  1   8.65255027     11.6562885399     4.70985181
162  1   11.53673370     11.6562885399     4.70985181
163  1   14.42091712     11.6562885399     4.70985181
164  1   17.30510054     11.6562885399     4.70985181
165  1   20.18928397     11.6562885399     4.70985181
166  1   23.07346739     11.6562885399     4.70985181
167  1   25.95765082     11.6562885399     4.70985181
168  1   28.84183424     11.6562885399     4.70985181
169  1   10.09464198     14.1540646535     4.70985181
170  1   12.97882540     14.1540646535     4.70985181
171  1   15.86300883     14.1540646535     4.70985181
172  1   18.74719225     14.1540646535     4.70985181
173  1   21.63137567     14.1540646535     4.70985181
174  1   24.51555910     14.1540646535     4.70985181
175  1   27.39974252     14.1540646535     4.70985181
176  1   30.28392595     14.1540646535     4.70985181
177  1   11.53673370     16.6518407670     4.70985181
178  1   14.42091712     16.6518407670     4.70985181
179  1   17.30510054     16.6518407670     4.70985181
180  1   20.18928397     16.6518407670     4.70985181
181  1   23.07346739     16.6518407670     4.70985181
182  1   25.95765082     16.6518407670     4.70985181
183  1   28.84183424     16.6518407670     4.70985181
184  1   31.72601766     16.6518407670     4.70985181
185  1   12.97882540     19.1496168806     4.70985181
186  1   15.86300883     19.1496168806     4.70985181
187  1   18.74719225     19.1496168806     4.70985181
188  1   21.63137567     19.1496168806     4.70985181
189  1   24.51555910     19.1496168806     4.70985181
190  1   27.39974252     19.1496168806     4.70985181
191  1   30.28392595     19.1496168806     4.70985181
192  1   33.16810937     19.1496168806     4.70985181
193  1   4.32627513     2.4977761236     7.06477771
194  1   7.21045855     2.4977761236     7.06477771
195  1   10.09464198     2.4977761236     7.06477771
196  1   12.97882540     2.4977761236     7.06477771
197  1   15.86300883     2.4977761236     7.06477771
198  1   18.74719225     2.4977761236     7.06477771
199  1   21.63137567     2.4977761236     7.06477771
200  1   24.51555910     2.4977761236     7.06477771
201  1   5.76836685     4.9955522371     7.06477771
202  1   8.65255027     4.9955522371     7.06477771
203  1   11.53673370     4.9955522371     7.06477771
204  1   14.42091712     4.9955522371     7.06477771
205  1   17.30510054     4.9955522371     7.06477771
206  1   20.18928397     4.9955522371     7.06477771
207  1   23.07346739     4.9955522371     7.06477771
208  1   25.95765082     4.9955522371     7.06477771
209  1   7.21045855     7.4933283507     7.06477771
210  1   10.09464198     7.4933283507     7.06477771
211  1   12.97882540     7.4933283507     7.06477771
212  1   15.86300883     7.4933283507     7.06477771
213  1   18.74719225     7.4933283507     7.06477771
214  1   21.63137567     7.4933283507     7.06477771
215  1   24.51555910     7.4933283507     7.06477771
216  1   27.39974252     7.4933283507     7.06477771
217  1   8.65255027     9.9911044642     7.06477771
218  1   11.53673370     9.9911044642     7.06477771
219  1   14.42091712     9.9911044642     7.06477771
220  1   17.30510054     9.9911044642     7.06477771
221  1   20.18928397     9.9911044642     7.06477771
222  1   23.07346739     9.9911044642     7.06477771
223  1   25.95765082     9.9911044642     7.06477771
224  1   28.84183424     9.9911044642     7.06477771
225  1   10.09464198     12.4888805878     7.06477771
226  1   12.97882540     12.4888805878     7.06477771
227  1   15.86300883     12.4888805878     7.06477771
228  1   18.74719225     12.4888805878     7.06477771
229  1   21.63137567     12.4888805878     7.06477771
230  1   24.51555910     12.4888805878     7.06477771
231  1   27.39974252     12.4888805878     7.06477771
232  1   30.28392595     12.4888805878     7.06477771
233  1   11.53673370     14.9866566813     7.06477771
234  1   14.42091712     14.9866566813     7.06477771
235  1   17.30510054     14.9866566813     7.06477771
236  1   20.18928397     14.9866566813     7.06477771
237  1   23.07346739     14.9866566813     7.06477771
238  1   25.95765082     14.9866566813     7.06477771
239  1   28.84183424     14.9866566813     7.06477771
240  1   31.72601766     14.9866566813     7.06477771
241  1   12.97882540     17.4844328049     7.06477771
242  1   15.86300883     17.4844328049     7.06477771
243  1   18.74719225     17.4844328049     7.06477771
244  1   21.63137567     17.4844328049     7.06477771
245  1   24.51555910     17.4844328049     7.06477771
246  1   27.39974252     17.4844328049     7.06477771
247  1   30.28392595     17.4844328049     7.06477771
248  1   33.16810937     17.4844328049     7.06477771
249  1   14.42091712     19.9822089184     7.06477771
250  1   17.30510054     19.9822089184     7.06477771
251  1   20.18928397     19.9822089184     7.06477771
252  1   23.07346739     19.9822089184     7.06477771
253  1   25.95765082     19.9822089184     7.06477771
254  1   28.84183424     19.9822089184     7.06477771
255  1   31.72601766     19.9822089184     7.06477771
256  1   34.61020109     19.9822089184     7.06477771
257  1   5.76836685     3.3303681514     9.41970361
258  1   8.65255027     3.3303681514     9.41970361
259  1   11.53673370     3.3303681514     9.41970361
260  1   14.42091712     3.3303681514     9.41970361
261  1   17.30510054     3.3303681514     9.41970361
262  1   20.18928397     3.3303681514     9.41970361
263  1   23.07346739     3.3303681514     9.41970361
264  1   25.95765082     3.3303681514     9.41970361
265  1   7.21045855     5.8281442750     9.41970361
266  1   10.09464198     5.8281442750     9.41970361
267  1   12.97882540     5.8281442750     9.41970361
268  1   15.86300883     5.8281442750     9.41970361
269  1   18.74719225     5.8281442750     9.41970361
270  1   21.63137567     5.8281442750     9.41970361
271  1   24.51555910     5.8281442750     9.41970361
272  1   27.39974252     5.8281442750     9.41970361
273  1   8.65255027     8.3259203885     9.41970361
274  1   11.53673370     8.3259203885     9.41970361
275  1   14.42091712     8.3259203885     9.41970361
276  1   17.30510054     8.3259203885     9.41970361
277  1   20.18928397     8.3259203885     9.41970361
278  1   23.07346739     8.3259203885     9.41970361
279  1   25.95765082     8.3259203885     9.41970361
280  1   28.84183424     8.3259203885     9.41970361
281  1   10.09464198     10.8236965021     9.41970361
282  1   12.97882540     10.8236965021     9.41970361
283  1   15.86300883     10.8236965021     9.41970361
284  1   18.74719225     10.8236965021     9.41970361
285  1   21.63137567     10.8236965021     9.41970361
286  1   24.51555910     10.8236965021     9.41970361
287  1   27.39974252     10.8236965021     9.41970361
288  1   30.28392595     10.8236965021     9.41970361
289  1   11.53673370     13.3214726156     9.41970361
290  1   14.42091712     13.3214726156     9.41970361
291  1   17.30510054     13.3214726156     9.41970361
292  1   20.18928397     13.3214726156     9.41970361
293  1   23.07346739     13.3214726156     9.41970361
294  1   25.95765082     13.3214726156     9.41970361
295  1   28.84183424     13.3214726156     9.41970361
296  1   31.72601766     13.3214726156     9.41970361
297  1   12.97882540     15.8192487392     9.41970361
298  1   15.86300883     15.8192487392     9.41970361
299  1   18.74719225     15.8192487392     9.41970361
300  1   21.63137567     15.8192487392     9.41970361
301  1   24.51555910     15.8192487392     9.41970361
302  1   27.39974252     15.8192487392     9.41970361
303  1   30.28392595     15.8192487392     9.41970361
304  1   33.16810937     15.8192487392     9.41970361
305  1   14.42091712     18.3170248427     9.41970361
306  1   17.30510054     18.3170248427     9.41970361
307  1   20.18928397     18.3170248427     9.41970361
308  1   23.07346739     18.3170248427     9.41970361
309  1   25.95765082     18.3170248427     9.41970361
310  1   28.84183424     18.3170248427     9.41970361
311  1   31.72601766     18.3170248427     9.41970361
312  1   34.61020109     18.3170248427     9.41970361
313  1   15.86300883     20.8148009663     9.41970361
314  1   18.74719225     20.8148009663     9.41970361
315  1   21.63137567     20.8148009663     9.41970361
316  1   24.51555910     20.8148009663     9.41970361
317  1   27.39974252     20.8148009663     9.41970361
318  1   30.28392595     20.8148009663     9.41970361
319  1   33.16810937     20.8148009663     9.41970361
320  1   36.05229279     20.8148009663     9.41970361
321  1   7.21045855     4.1629602093     11.77462953
322  1   10.09464198     4.1629602093     11.77462953
323  1   12.97882540     4.1629602093     11.77462953
324  1   15.86300883     4.1629602093     11.77462953
325  1   18.74719225     4.1629602093     11.77462953
326  1   21.63137567     4.1629602093     11.77462953
327  1   24.51555910     4.1629602093     11.77462953
328  1   27.39974252     4.1629602093     11.77462953
329  1   8.65255027     6.6607363028     11.77462953
330  1   11.53673370     6.6607363028     11.77462953
331  1   14.42091712     6.6607363028     11.77462953
332  1   17.30510054     6.6607363028     11.77462953
333  1   20.18928397     6.6607363028     11.77462953
334  1   23.07346739     6.6607363028     11.77462953
335  1   25.95765082     6.6607363028     11.77462953
336  1   28.84183424     6.6607363028     11.77462953
337  1   10.09464198     9.1585124264     11.77462953
338  1   12.97882540     9.1585124264     11.77462953
339  1   15.86300883     9.1585124264     11.77462953
340  1   18.74719225     9.1585124264     11.77462953
341  1   21.63137567     9.1585124264     11.77462953
342  1   24.51555910     9.1585124264     11.77462953
343  1   27.39974252     9.1585124264     11.77462953
344  1   30.28392595     9.1585124264     11.77462953
345  1   11.53673370     11.6562885399     11.77462953
346  1   14.42091712     11.6562885399     11.77462953
347  1   17.30510054     11.6562885399     11.77462953
348  1   20.18928397     11.6562885399     11.77462953
349  1   23.07346739     11.6562885399     11.77462953
350  1   25.95765082     11.6562885399     11.77462953
351  1   28.84183424     11.6562885399     11.77462953
352  1   31.72601766     11.6562885399     11.77462953
353  1   12.97882540     14.1540646535     11.77462953
354  1   15.86300883     14.1540646535     11.77462953
355  1   18.74719225     14.1540646535     11.77462953
356  1   21.63137567     14.1540646535     11.77462953
357  1   24.51555910     14.1540646535     11.77462953
358  1   27.39974252     14.1540646535     11.77462953
359  1   30.28392595     14.1540646535     11.77462953
360  1   33.16810937     14.1540646535     11.77462953
361  1   14.42091712     16.6518407670     11.77462953
362  1   17.30510054     16.6518407670     11.77462953
363  1   20.18928397     16.6518407670     11.77462953
364  1   23.07346739     16.6518407670     11.77462953
365  1   25.95765082     16.6518407670     11.77462953
366  1   28.84183424     16.6518407670     11.77462953
367  1   31.72601766     16.6518407670     11.77462953
368  1   34.61020109     16.6518407670     11.77462953
369  1   15.86300883     19.1496168806     11.77462953
370  1   18.74719225     19.1496168806     11.77462953
371  1   21.63137567     19.1496168806     11.77462953
372  1   24.51555910     19.1496168806     11.77462953
373  1   27.39974252     19.1496168806     11.77462953
374  1   30.28392595     19.1496168806     11.77462953
375  1   33.16810937     19.1496168806     11.77462953
376  1   36.05229279     19.1496168806     11.77462953
377  1   17.30510054     21.6473929941     11.77462953
378  1   20.18928397     21.6473929941     11.77462953
379  1   23.07346739     21.6473929941     11.77462953
380  1   25.95765082     21.6473929941     11.77462953
381  1   28.84183424     21.6473929941     11.77462953
382  1   31.72601766     21.6473929941     11.77462953
383  1   34.61020109     21.6473929941     11.77462953
384  1   37.49438451     21.6473929941     11.77462953
385  1   8.65255027     4.9955522371     14.12955543
386  1   11.53673370     4.9955522371     14.12955543
387  1   14.42091712     4.9955522371     14.12955543
388  1   17.30510054     4.9955522371     14.12955543
389  1   20.18928397     4.9955522371     14.12955543
390  1   23.07346739     4.9955522371     14.12955543
391  1   25.95765082     4.9955522371     14.12955543
392  1   28.84183424     4.9955522371     14.12955543
393  1   10.09464198     7.4933283507     14.12955543
394  1   12.97882540     7.4933283507     14.12955543
395  1   15.86300883     7.4933283507     14.12955543
396  1   18.74719225     7.4933283507     14.12955543
397  1   21.63137567     7.4933283507     14.12955543
398  1   24.51555910     7.4933283507     14.12955543
399  1   27.39974252     7.4933283507     14.12955543
400  1   30.28392595     7.4933283507     14.12955543
401  1   11.53673370     9.9911044642     14.12955543
402  1   14.42091712     9.9911044642     14.12955543
403  1   17.30510054     9.9911044642     14.12955543
404  1   20.18928397     9.9911044642     14.12955543
405  1   23.07346739     9.9911044642     14.12955543
406  1   25.95765082     9.9911044642     14.12955543
407  1   28.84183424     9.9911044642     14.12955543
408  1   31.72601766     9.9911044642     14.12955543
409  1   12.97882540     12.4888805878     14.12955543
410  1   15.86300883     12.4888805878     14.12955543
411  1   18.74719225     12.4888805878     14.12955543
412  1   21.63137567     12.4888805878     14.12955543
413  1   24.51555910     12.4888805878     14.12955543
414  1   27.39974252     12.4888805878     14.12955543
415  1   30.28392595     12.4888805878     14.12955543
416  1   33.16810937     12.4888805878     14.12955543
417  1   14.42091712     14.9866566813     14.12955543
418  1   17.30510054     14.9866566813     14.12955543
419  1   20.18928397     14.9866566813     14.12955543
420  1   23.07346739     14.9866566813     14.12955543
421  1   25.95765082     14.9866566813     14.12955543
422  1   28.84183424     14.9866566813     14.12955543
423  1   31.72601766     14.9866566813     14.12955543
424  1   34.61020109     14.9866566813     14.12955543
425  1   15.86300883     17.4844328049     14.12955543
426  1   18.74719225     17.4844328049     14.12955543
427  1   21.63137567     17.4844328049     14.12955543
428  1   24.51555910     17.4844328049     14.12955543
429  1   27.39974252     17.4844328049     14.12955543
430  1   30.28392595     17.4844328049     14.12955543
431  1   33.16810937     17.4844328049     14.12955543
432  1   36.05229279     17.4844328049     14.12955543
433  1   17.30510054     19.9822089184     14.12955543
434  1   20.18928397     19.9822089184     14.12955543
435  1   23.07346739     19.9822089184     14.12955543
436  1   25.95765082     19.9822089184     14.12955543
437  1   28.84183424     19.9822089184     14.12955543
438  1   31.72601766     19.9822089184     14.12955543
439  1   34.61020109     19.9822089184     14.12955543
440  1   37.49438451     19.9822089184     14.12955543
441  1   18.74719225     22.4799850320     14.12955543
442  1   21.63137567     22.4799850320     14.12955543
443  1   24.51555910     22.4799850320     14.12955543
444  1   27.39974252     22.4799850320     14.12955543
445  1   30.28392595     22.4799850320     14.12955543
446  1   33.16810937     22.4799850320     14.12955543
447  1   36.05229279     22.4799850320     14.12955543
448  1   38.93647622     22.4799850320     14.12955543
449  1   10.09464198     5.8281442750     16.48448133
450  1   12.97882540     5.8281442750     16.48448133
451  1   15.86300883     5.8281442750     16.48448133
452  1   18.74719225     5.8281442750     16.48448133
453  1   21.63137567     5.8281442750     16.48448133
454  1   24.51555910     5.8281442750     16.48448133
455  1   27.39974252     5.8281442750     16.48448133
456  1   30.28392595     5.8281442750     16.48448133
457  1   11.53673370     8.3259203885     16.48448133
458  1   14.42091712     8.3259203885     16.48448133
459  1   17.30510054     8.3259203885     16.48448133
460  1   20.18928397     8.3259203885     16.48448133
461  1   23.07346739     8.3259203885     16.48448133
462  1   25.95765082     8.3259203885     16.48448133
463  1   28.84183424     8.3259203885     16.48448133
464  1   31.72601766     8.3259203885     16.48448133
465  1   12.97882540     10.8236965021     16.48448133
466  1   15.86300883     10.8236965021     16.48448133
467  1   18.74719225     10.8236965021     16.48448133
468  1   21.63137567     10.8236965021     16.48448133
469  1   24.51555910     10.8236965021     16.48448133
470  1   27.39974252     10.8236965021     16.48448133
471  1   30.28392595     10.8236965021     16.48448133
472  1   33.16810937     10.8236965021     16.48448133
473  1   14.42091712     13.3214726156     16.48448133
474  1   17.30510054     13.3214726156     16.48448133
475  1   20.18928397     13.3214726156     16.48448133
476  1   23.07346739     13.3214726156     16.48448133
477  1   25.95765082     13.3214726156     16.48448133
478  1   28.84183424     13.3214726156     16.48448133
479  1   31.72601766     13.3214726156     16.48448133
480  1   34.61020109     13.3214726156     16.48448133
481  1   15.86300883     15.8192487392     16.48448133
482  1   18.74719225     15.8192487392     16.48448133
483  1   21.63137567     15.8192487392     16.48448133
484  1   24.51555910     15.8192487392     16.48448133
485  1   27.39974252     15.8192487392     16.48448133
486  1   30.28392595     15.8192487392     16.48448133
487  1   33.16810937     15.8192487392     16.48448133
488  1   36.05229279     15.8192487392     16.48448133
489  1   17.30510054     18.3170248427     16.48448133
490  1   20.18928397     18.3170248427     16.48448133
491  1   23.07346739     18.3170248427     16.48448133
492  1   25.95765082     18.3170248427     16.48448133
493  1   28.84183424     18.3170248427     16.48448133
494  1   31.72601766     18.3170248427     16.48448133
495  1   34.61020109     18.3170248427     16.48448133
496  1   37.49438451     18.3170248427     16.48448133
497  1   18.74719225     20.8148009663     16.48448133
498  1   21.63137567     20.8148009663     16.48448133
499  1   24.51555910     20.8148009663     16.48448133
500  1   27.39974252     20.8148009663     16.48448133
501  1   30.28392595     20.8148009663     16.48448133
502  1   33.16810937     20.8148009663     16.48448133
503  1   36.05229279     20.8148009663     16.48448133
504  1   38.93647622     20.8148009663     16.48448133
505  1   20.18928397     23.3125770698     16.48448133
506  1   23.07346739     23.3125770698     16.48448133
507  1   25.95765082     23.3125770698     16.48448133
508  1   28.84183424     23.3125770698     16.48448133
509  1   31.72601766     23.3125770698     16.48448133
510  1   34.61020109     23.3125770698     16.48448133
511  1   37.49438451     23.3125770698     16.48448133
512  1   40.37856794     23.3125770698     16.48448133
