ITEM: TIMESTEP
0
ITEM: NUMBER OF ATOMS
512
ITEM: BOX BOUNDS xy xz yz pp pp pp
0.0000000000000000e+00 4.6146935159999998e+01 1.1536733860000000e+01
0.0000000000000000e+00 2.6642945210000001e+01 1.1536733860000000e+01
0.0000000000000000e+00 1.8839407219999998e+01 6.6607362999999999e+00
ITEM: ATOMS id type xs ys zs
1 1 0 0 0
2 1 0.125 0 0
3 1 0.25 0 0
4 1 0.375 0 0
5 1 0.5 0 0
6 1 0.625 0 0
7 1 0.75 0 0
8 1 0.875 0 0
9 1 1 0.125 0
10 1 0.125 0.125 0
11 1 0.25 0.125 0
12 1 0.375 0.125 0
13 1 0.5 0.125 0
14 1 0.625 0.125 0
15 1 0.75 0.125 0
16 1 0.875 0.125 0
17 1 1 0.25 0
18 1 0.125 0.25 0
19 1 0.25 0.25 0
20 1 0.375 0.25 0
21 1 0.5 0.25 0
22 1 0.625 0.25 0
23 1 0.75 0.25 0
24 1 0.875 0.25 0
25 1 1 0.375 0
26 1 0.125 0.375 0
27 1 0.25 0.375 0
28 1 0.375 0.375 0
29 1 0.5 0.375 0
30 1 0.625 0.375 0
31 1 0.75 0.375 0
32 1 0.875 0.375 0
33 1 1 0.5 0
34 1 0.125 0.5 0
35 1 0.25 0.5 0
36 1 0.375 0.5 0
37 1 0.5 0.5 0
38 1 0.625 0.5 0
39 1 0.75 0.5 0
40 1 0.875 0.5 0
41 1 1 0.625 0
42 1 0.125 0.625 0
43 1 0.25 0.625 0
44 1 0.375 0.625 0
45 1 0.5 0.625 0
46 1 0.625 0.625 0
47 1 0.75 0.625 0
48 1 0.875 0.625 0
49 1 1 0.75 0
50 1 0.125 0.75 0
51 1 0.25 0.75 0
52 1 0.375 0.75 0
53 1 0.5 0.75 0
54 1 0.625 0.75 0
55 1 0.75 0.75 0
56 1 0.875 0.75 0
57 1 1 0.875 0
58 1 0.125 0.875 0
59 1 0.25 0.875 0
60 1 0.375 0.875 0
61 1 0.5 0.875 0
62 1 0.625 0.875 0
63 1 0.75 0.875 0
64 1 0.875 0.875 0
65 1 1 5.64696e-10 0.125
66 1 0.125 5.64696e-10 0.125
67 1 0.25 5.64696e-10 0.125
68 1 0.375 5.64696e-10 0.125
69 1 0.5 5.64696e-10 0.125
70 1 0.625 5.64696e-10 0.125
71 1 0.75 5.64696e-10 0.125
72 1 0.875 5.64696e-10 0.125
73 1 1 0.125 0.125
74 1 0.125 0.125 0.125
75 1 0.25 0.125 0.125
76 1 0.375 0.125 0.125
77 1 0.5 0.125 0.125
78 1 0.625 0.125 0.125
79 1 0.75 0.125 0.125
80 1 0.875 0.125 0.125
81 1 1 0.25 0.125
82 1 0.125 0.25 0.125
83 1 0.25 0.25 0.125
84 1 0.375 0.25 0.125
85 1 0.5 0.25 0.125
86 1 0.625 0.25 0.125
87 1 0.75 0.25 0.125
88 1 0.875 0.25 0.125
89 1 1 0.375 0.125
90 1 0.125 0.375 0.125
91 1 0.25 0.375 0.125
92 1 0.375 0.375 0.125
93 1 0.5 0.375 0.125
94 1 0.625 0.375 0.125
95 1 0.75 0.375 0.125
96 1 0.875 0.375 0.125
97 1 1 0.5 0.125
98 1 0.125 0.5 0.125
99 1 0.25 0.5 0.125
100 1 0.375 0.5 0.125
101 1 0.5 0.5 0.125
102 1 0.625 0.5 0.125
103 1 0.75 0.5 0.125
104 1 0.875 0.5 0.125
105 1 1 0.625 0.125
106 1 0.125 0.625 0.125
107 1 0.25 0.625 0.125
108 1 0.375 0.625 0.125
109 1 0.5 0.625 0.125
110 1 0.625 0.625 0.125
111 1 0.75 0.625 0.125
112 1 0.875 0.625 0.125
113 1 1 0.75 0.125
114 1 0.125 0.75 0.125
115 1 0.25 0.75 0.125
116 1 0.375 0.75 0.125
117 1 0.5 0.75 0.125
118 1 0.625 0.75 0.125
119 1 0.75 0.75 0.125
120 1 0.875 0.75 0.125
121 1 1 0.875 0.125
122 1 0.125 0.875 0.125
123 1 0.25 0.875 0.125
124 1 0.375 0.875 0.125
125 1 0.5 0.875 0.125
126 1 0.625 0.875 0.125
127 1 0.75 0.875 0.125
128 1 0.875 0.875 0.125
129 1 1 4.47009e-10 0.25
130 1 0.125 4.47009e-10 0.25
131 1 0.25 4.47009e-10 0.25
132 1 0.375 4.47009e-10 0.25
133 1 0.5 4.47009e-10 0.25
134 1 0.625 4.47009e-10 0.25
135 1 0.75 4.47009e-10 0.25
136 1 0.875 4.47009e-10 0.25
137 1 1 0.125 0.25
138 1 0.125 0.125 0.25
139 1 0.25 0.125 0.25
140 1 0.375 0.125 0.25
141 1 0.5 0.125 0.25
142 1 0.625 0.125 0.25
143 1 0.75 0.125 0.25
144 1 0.875 0.125 0.25
145 1 1 0.25 0.25
146 1 0.125 0.25 0.25
147 1 0.25 0.25 0.25
148 1 0.375 0.25 0.25
149 1 0.5 0.25 0.25
150 1 0.625 0.25 0.25
151 1 0.75 0.25 0.25
152 1 0.875 0.25 0.25
153 1 1 0.375 0.25
154 1 0.125 0.375 0.25
155 1 0.25 0.375 0.25
156 1 0.375 0.375 0.25
157 1 0.5 0.375 0.25
158 1 0.625 0.375 0.25
159 1 0.75 0.375 0.25
160 1 0.875 0.375 0.25
161 1 1 0.5 0.25
162 1 0.125 0.5 0.25
163 1 0.25 0.5 0.25
164 1 0.375 0.5 0.25
165 1 0.5 0.5 0.25
166 1 0.625 0.5 0.25
167 1 0.75 0.5 0.25
168 1 0.875 0.5 0.25
169 1 1 0.625 0.25
170 1 0.125 0.625 0.25
171 1 0.25 0.625 0.25
172 1 0.375 0.625 0.25
173 1 0.5 0.625 0.25
174 1 0.625 0.625 0.25
175 1 0.75 0.625 0.25
176 1 0.875 0.625 0.25
177 1 1 0.75 0.25
178 1 0.125 0.75 0.25
179 1 0.25 0.75 0.25
180 1 0.375 0.75 0.25
181 1 0.5 0.75 0.25
182 1 0.625 0.75 0.25
183 1 0.75 0.75 0.25
184 1 0.875 0.75 0.25
185 1 1 0.875 0.25
186 1 0.125 0.875 0.25
187 1 0.25 0.875 0.25
188 1 0.375 0.875 0.25
189 1 0.5 0.875 0.25
190 1 0.625 0.875 0.25
191 1 0.75 0.875 0.25
192 1 0.875 0.875 0.25
193 1 1 5.11261e-10 0.375
194 1 0.125 5.11261e-10 0.375
195 1 0.25 5.11261e-10 0.375
196 1 0.375 5.11261e-10 0.375
197 1 0.5 5.11261e-10 0.375
198 1 0.625 5.11261e-10 0.375
199 1 0.75 5.11261e-10 0.375
200 1 0.875 5.11261e-10 0.375
201 1 1 0.125 0.375
202 1 0.125 0.125 0.375
203 1 0.25 0.125 0.375
204 1 0.375 0.125 0.375
205 1 0.5 0.125 0.375
206 1 0.625 0.125 0.375
207 1 0.75 0.125 0.375
208 1 0.875 0.125 0.375
209 1 1 0.25 0.375
210 1 0.125 0.25 0.375
211 1 0.25 0.25 0.375
212 1 0.375 0.25 0.375
213 1 0.5 0.25 0.375
214 1 0.625 0.25 0.375
215 1 0.75 0.25 0.375
216 1 0.875 0.25 0.375
217 1 1 0.375 0.375
218 1 0.125 0.375 0.375
219 1 0.25 0.375 0.375
220 1 0.375 0.375 0.375
221 1 0.5 0.375 0.375
222 1 0.625 0.375 0.375
223 1 0.75 0.375 0.375
224 1 0.875 0.375 0.375
225 1 1 0.5 0.375
226 1 0.125 0.5 0.375
227 1 0.25 0.5 0.375
228 1 0.375 0.5 0.375
229 1 0.5 0.5 0.375
230 1 0.625 0.5 0.375
231 1 0.75 0.5 0.375
232 1 0.875 0.5 0.375
233 1 1 0.625 0.375
234 1 0.125 0.625 0.375
235 1 0.25 0.625 0.375
236 1 0.375 0.625 0.375
237 1 0.5 0.625 0.375
238 1 0.625 0.625 0.375
239 1 0.75 0.625 0.375
240 1 0.875 0.625 0.375
241 1 1 0.75 0.375
242 1 0.125 0.75 0.375
243 1 0.25 0.75 0.375
244 1 0.375 0.75 0.375
245 1 0.5 0.75 0.375
246 1 0.625 0.75 0.375
247 1 0.75 0.75 0.375
248 1 0.875 0.75 0.375
249 1 1 0.875 0.375
250 1 0.125 0.875 0.375
251 1 0.25 0.875 0.375
252 1 0.375 0.875 0.375
253 1 0.5 0.875 0.375
254 1 0.625 0.875 0.375
255 1 0.75 0.875 0.375
256 1 0.875 0.875 0.375
257 1 1 7.00624e-11 0.5
258 1 0.125 7.00624e-11 0.5
259 1 0.25 7.00624e-11 0.5
260 1 0.375 7.00624e-11 0.5
261 1 0.5 7.00624e-11 0.5
262 1 0.625 7.00624e-11 0.5
263 1 0.75 7.00624e-11 0.5
264 1 0.875 7.00624e-11 0.5
265 1 1 0.125 0.5
266 1 0.125 0.125 0.5
267 1 0.25 0.125 0.5
268 1 0.375 0.125 0.5
269 1 0.5 0.125 0.5
270 1 0.625 0.125 0.5
271 1 0.75 0.125 0.5
272 1 0.875 0.125 0.5
273 1 1 0.25 0.5
274 1 0.125 0.25 0.5
275 1 0.25 0.25 0.5
276 1 0.375 0.25 0.5
277 1 0.5 0.25 0.5
278 1 0.625 0.25 0.5
279 1 0.75 0.25 0.5
280 1 0.875 0.25 0.5
281 1 1 0.375 0.5
282 1 0.125 0.375 0.5
283 1 0.25 0.375 0.5
284 1 0.375 0.375 0.5
285 1 0.5 0.375 0.5
286 1 0.625 0.375 0.5
287 1 0.75 0.375 0.5
288 1 0.875 0.375 0.5
289 1 1 0.5 0.5
290 1 0.125 0.5 0.5
291 1 0.25 0.5 0.5
292 1 0.375 0.5 0.5
293 1 0.5 0.5 0.5
294 1 0.625 0.5 0.5
295 1 0.75 0.5 0.5
296 1 0.875 0.5 0.5
297 1 1 0.625 0.5
298 1 0.125 0.625 0.5
299 1 0.25 0.625 0.5
300 1 0.375 0.625 0.5
301 1 0.5 0.625 0.5
302 1 0.625 0.625 0.5
303 1 0.75 0.625 0.5
304 1 0.875 0.625 0.5
305 1 1 0.75 0.5
306 1 0.125 0.75 0.5
307 1 0.25 0.75 0.5
308 1 0.375 0.75 0.5
309 1 0.5 0.75 0.5
310 1 0.625 0.75 0.5
311 1 0.75 0.75 0.5
312 1 0.875 0.75 0.5
313 1 1 0.875 0.5
314 1 0.125 0.875 0.5
315 1 0.25 0.875 0.5
316 1 0.375 0.875 0.5
317 1 0.5 0.875 0.5
318 1 0.625 0.875 0.5
319 1 0.75 0.875 0.5
320 1 0.875 0.875 0.5
321 1 1 7.81336e-10 0.625
322 1 0.125 7.81336e-10 0.625
323 1 0.25 7.81336e-10 0.625
324 1 0.375 7.81336e-10 0.625
325 1 0.5 7.81336e-10 0.625
326 1 0.625 7.81336e-10 0.625
327 1 0.75 7.81336e-10 0.625
328 1 0.875 7.81336e-10 0.625
329 1 1 0.125 0.625
330 1 0.125 0.125 0.625
331 1 0.25 0.125 0.625
332 1 0.375 0.125 0.625
333 1 0.5 0.125 0.625
334 1 0.625 0.125 0.625
335 1 0.75 0.125 0.625
336 1 0.875 0.125 0.625
337 1 1 0.25 0.625
338 1 0.125 0.25 0.625
339 1 0.25 0.25 0.625
340 1 0.375 0.25 0.625
341 1 0.5 0.25 0.625
342 1 0.625 0.25 0.625
343 1 0.75 0.25 0.625
344 1 0.875 0.25 0.625
345 1 1 0.375 0.625
346 1 0.125 0.375 0.625
347 1 0.25 0.375 0.625
348 1 0.375 0.375 0.625
349 1 0.5 0.375 0.625
350 1 0.625 0.375 0.625
351 1 0.75 0.375 0.625
352 1 0.875 0.375 0.625
353 1 1 0.5 0.625
354 1 0.125 0.5 0.625
355 1 0.25 0.5 0.625
356 1 0.375 0.5 0.625
357 1 0.5 0.5 0.625
358 1 0.625 0.5 0.625
359 1 0.75 0.5 0.625
360 1 0.875 0.5 0.625
361 1 1 0.625 0.625
362 1 0.125 0.625 0.625
363 1 0.25 0.625 0.625
364 1 0.375 0.625 0.625
365 1 0.5 0.625 0.625
366 1 0.625 0.625 0.625
367 1 0.75 0.625 0.625
368 1 0.875 0.625 0.625
369 1 1 0.75 0.625
370 1 0.125 0.75 0.625
371 1 0.25 0.75 0.625
372 1 0.375 0.75 0.625
373 1 0.5 0.75 0.625
374 1 0.625 0.75 0.625
375 1 0.75 0.75 0.625
376 1 0.875 0.75 0.625
377 1 1 0.875 0.625
378 1 0.125 0.875 0.625
379 1 0.25 0.875 0.625
380 1 0.375 0.875 0.625
381 1 0.5 0.875 0.625
382 1 0.625 0.875 0.625
383 1 0.75 0.875 0.625
384 1 0.875 0.875 0.625
385 1 1 3.40138e-10 0.75
386 1 0.125 3.40138e-10 0.75
387 1 0.25 3.40138e-10 0.75
388 1 0.375 3.40138e-10 0.75
389 1 0.5 3.40138e-10 0.75
390 1 0.625 3.40138e-10 0.75
391 1 0.75 3.40138e-10 0.75
392 1 0.875 3.40138e-10 0.75
393 1 1 0.125 0.75
394 1 0.125 0.125 0.75
395 1 0.25 0.125 0.75
396 1 0.375 0.125 0.75
397 1 0.5 0.125 0.75
398 1 0.625 0.125 0.75
399 1 0.75 0.125 0.75
400 1 0.875 0.125 0.75
401 1 1 0.25 0.75
402 1 0.125 0.25 0.75
403 1 0.25 0.25 0.75
404 1 0.375 0.25 0.75
405 1 0.5 0.25 0.75
406 1 0.625 0.25 0.75
407 1 0.75 0.25 0.75
408 1 0.875 0.25 0.75
409 1 1 0.375 0.75
410 1 0.125 0.375 0.75
411 1 0.25 0.375 0.75
412 1 0.375 0.375 0.75
413 1 0.5 0.375 0.75
414 1 0.625 0.375 0.75
415 1 0.75 0.375 0.75
416 1 0.875 0.375 0.75
417 1 1 0.5 0.75
418 1 0.125 0.5 0.75
419 1 0.25 0.5 0.75
420 1 0.375 0.5 0.75
421 1 0.5 0.5 0.75
422 1 0.625 0.5 0.75
423 1 0.75 0.5 0.75
424 1 0.875 0.5 0.75
425 1 1 0.625 0.75
426 1 0.125 0.625 0.75
427 1 0.25 0.625 0.75
428 1 0.375 0.625 0.75
429 1 0.5 0.625 0.75
430 1 0.625 0.625 0.75
431 1 0.75 0.625 0.75
432 1 0.875 0.625 0.75
433 1 1 0.75 0.75
434 1 0.125 0.75 0.75
435 1 0.25 0.75 0.75
436 1 0.375 0.75 0.75
437 1 0.5 0.75 0.75
438 1 0.625 0.75 0.75
439 1 0.75 0.75 0.75
440 1 0.875 0.75 0.75
441 1 1 0.875 0.75
442 1 0.125 0.875 0.75
443 1 0.25 0.875 0.75
444 1 0.375 0.875 0.75
445 1 0.5 0.875 0.75
446 1 0.625 0.875 0.75
447 1 0.75 0.875 0.75
448 1 0.875 0.875 0.75
449 1 1 4.04389e-10 0.875
450 1 0.125 4.04389e-10 0.875
451 1 0.25 4.04389e-10 0.875
452 1 0.375 4.04389e-10 0.875
453 1 0.5 4.04389e-10 0.875
454 1 0.625 4.04389e-10 0.875
455 1 0.75 4.04389e-10 0.875
456 1 0.875 4.04389e-10 0.875
457 1 1 0.125 0.875
458 1 0.125 0.125 0.875
459 1 0.25 0.125 0.875
460 1 0.375 0.125 0.875
461 1 0.5 0.125 0.875
462 1 0.625 0.125 0.875
463 1 0.75 0.125 0.875
464 1 0.875 0.125 0.875
465 1 1 0.25 0.875
466 1 0.125 0.25 0.875
467 1 0.25 0.25 0.875
468 1 0.375 0.25 0.875
469 1 0.5 0.25 0.875
470 1 0.625 0.25 0.875
471 1 0.75 0.25 0.875
472 1 0.875 0.25 0.875
473 1 1 0.375 0.875
474 1 0.125 0.375 0.875
475 1 0.25 0.375 0.875
476 1 0.375 0.375 0.875
477 1 0.5 0.375 0.875
478 1 0.625 0.375 0.875
479 1 0.75 0.375 0.875
480 1 0.875 0.375 0.875
481 1 1 0.5 0.875
482 1 0.125 0.5 0.875
483 1 0.25 0.5 0.875
484 1 0.375 0.5 0.875
485 1 0.5 0.5 0.875
486 1 0.625 0.5 0.875
487 1 0.75 0.5 0.875
488 1 0.875 0.5 0.875
489 1 1 0.625 0.875
490 1 0.125 0.625 0.875
491 1 0.25 0.625 0.875
492 1 0.375 0.625 0.875
493 1 0.5 0.625 0.875
494 1 0.625 0.625 0.875
495 1 0.75 0.625 0.875
496 1 0.875 0.625 0.875
497 1 1 0.75 0.875
498 1 0.125 0.75 0.875
499 1 0.25 0.75 0.875
500 1 0.375 0.75 0.875
501 1 0.5 0.75 0.875
502 1 0.625 0.75 0.875
503 1 0.75 0.75 0.875
504 1 0.875 0.75 0.875
505 1 1 0.875 0.875
506 1 0.125 0.875 0.875
507 1 0.25 0.875 0.875
508 1 0.375 0.875 0.875
509 1 0.5 0.875 0.875
510 1 0.625 0.875 0.875
511 1 0.75 0.875 0.875
512 1 0.875 0.875 0.875
ITEM: TIMESTEP
50000
ITEM: NUMBER OF ATOMS
512
ITEM: BOX BOUNDS xy xz yz pp pp pp
-4.5878089740442718e-02 4.6284569430334287e+01 1.1582611950296926e+01
-3.9731591099961605e-02 2.6709164528486511e+01 1.1582611950296926e+01
-3.7459303303284841e-02 1.8876866523303789e+01 6.6872240273865424e+00
ITEM: ATOMS id type xs ys zs
1 1 -0.00413608 0.000740903 -0.00238897
2 1 0.120925 0.00649422 0.000478745
3 1 0.251446 -0.0083261 0.00429843
4 1 0.37176 -0.00178565 0.00247604
5 1 0.495203 -0.00342487 0.00485012
6 1 0.622638 0.00024186 0.00512155
7 1 0.752947 -9.15684e-05 -0.0087171
8 1 0.859864 0.00355327 0.00280455
9 1 0.991742 0.125128 0.00722804
10 1 0.119753 0.130066 -0.00411837
11 1 0.24583 0.126569 -0.00450254
12 1 0.372522 0.127731 0.00579756
13 1 0.500899 0.115314 0.00941752
14 1 0.626613 0.127711 -0.00448812
15 1 0.741571 0.126913 0.00213626
16 1 0.881532 0.116108 -0.00436789
17 1 1.00517 0.253202 -0.00155405
18 1 0.125397 0.25176 0.00648063
19 1 0.255007 0.249846 0.00198434
20 1 0.374369 0.251414 0.000671864
21 1 0.503931 0.249613 -0.004829
22 1 0.62254 0.261789 -0.0100117
23 1 0.747114 0.250833 -0.00757454
24 1 0.873088 0.248781 -0.00543874
25 1 0.997109 0.382164 -0.00148715
26 1 0.119723 0.373833 0.00837232
27 1 0.250222 0.371656 0.00495896
28 1 0.374973 0.376308 -0.00376777
29 1 0.496874 0.388481 -0.00452293
30 1 0.62168 0.376245 0.000867318
31 1 0.749441 0.370582 0.0019099
32 1 0.878177 0.371885 -0.00271778
33 1 0.99349 0.499091 -0.00216312
34 1 0.121724 0.498908 0.00724665
35 1 0.256918 0.502661 5.70483e-05
36 1 0.369888 0.514725 -0.00290827
37 1 0.504126 0.502764 -0.00561976
38 1 0.627201 0.506315 -0.00681279
39 1 0.755652 0.494312 -0.00455755
40 1 0.870654 0.499854 -0.00492073
41 1 0.99812 0.61922 -0.000615672
42 1 0.128138 0.623692 -0.00371232
43 1 0.240376 0.631924 -0.000607781
44 1 0.383216 0.6285 -0.00992111
45 1 0.500749 0.62828 -0.00652788
46 1 0.624583 0.625199 -0.0037726
47 1 0.747726 0.625187 -0.00921221
48 1 0.873271 0.627606 -0.0108129
49 1 1.00033 0.748989 -0.00217268
50 1 0.124598 0.751793 0.00925553
51 1 0.257944 0.748757 0.00518959
52 1 0.376588 0.748554 0.00112144
53 1 0.494731 0.754033 0.00423935
54 1 0.623637 0.741404 0.00311388
55 1 0.754391 0.755775 -0.0134171
56 1 0.881899 0.749542 -0.00801121
57 1 0.990899 0.878234 0.00457277
58 1 0.119242 0.872319 0.00561342
59 1 0.25011 0.877298 -0.00642096
60 1 0.377417 0.873374 0.00729455
61 1 0.498915 0.870279 0.00570611
62 1 0.623409 0.874242 -0.00343687
63 1 0.746045 0.876086 0.00349577
64 1 0.869379 0.875819 -0.00393379
65 1 1.00506 -0.00616151 0.13129
66 1 0.130403 0.00432863 0.122687
67 1 0.252758 0.00731824 0.120496
68 1 0.380873 -0.0102722 0.13329
69 1 0.503574 -0.00341347 0.12568
70 1 0.622637 0.00573269 0.122185
71 1 0.746187 0.0078169 0.122852
72 1 0.868636 0.00199339 0.12803
73 1 0.999394 0.121368 0.124648
74 1 0.124917 0.130483 0.127495
75 1 0.251493 0.123692 0.127852
76 1 0.379838 0.123933 0.126786
77 1 0.496532 0.122811 0.131171
78 1 0.617408 0.133522 0.12325
79 1 0.752437 0.127595 0.121303
80 1 0.876529 0.125328 0.12626
81 1 0.996914 0.244933 0.132247
82 1 0.123709 0.246963 0.135363
83 1 0.246235 0.244453 0.129935
84 1 0.368187 0.255436 0.124601
85 1 0.497801 0.2543 0.125559
86 1 0.633379 0.246972 0.123992
87 1 0.758772 0.262519 0.114081
88 1 0.875487 0.251578 0.121697
89 1 1.00365 0.3742 0.12857
90 1 0.134391 0.373432 0.124086
91 1 0.256646 0.377331 0.120358
92 1 0.371847 0.380761 0.12283
93 1 0.498233 0.373518 0.126055
94 1 0.619291 0.389303 0.115801
95 1 0.751152 0.376826 0.132027
96 1 0.870566 0.38142 0.12598
97 1 1.00093 0.497932 0.124204
98 1 0.131845 0.504076 0.121538
99 1 0.246757 0.509375 0.121464
100 1 0.368988 0.50847 0.118203
101 1 0.497741 0.500044 0.121659
102 1 0.6287 0.498958 0.124178
103 1 0.747502 0.498192 0.121845
104 1 0.870473 0.511935 0.119276
105 1 1.00523 0.619655 0.121271
106 1 0.118893 0.637423 0.134521
107 1 0.245617 0.634018 0.133157
108 1 0.371359 0.626765 0.119708
109 1 0.502235 0.617501 0.124117
110 1 0.622668 0.620398 0.130119
111 1 0.751268 0.634393 0.110788
112 1 0.874904 0.629237 0.127195
113 1 0.996688 0.75576 0.122152
114 1 0.121998 0.757403 0.130653
115 1 0.247422 0.756174 0.125133
116 1 0.37416 0.747442 0.129043
117 1 0.490661 0.752586 0.128697
118 1 0.624038 0.757346 0.12128
119 1 0.746491 0.753491 0.120794
120 1 0.875371 0.748774 0.119966
121 1 0.997555 0.875976 0.127191
122 1 0.12004 0.874988 0.129434
123 1 0.241908 0.884628 0.128934
124 1 0.36968 0.878572 0.129236
125 1 0.501467 0.873346 0.128861
126 1 0.62737 0.876809 0.126524
127 1 0.750616 0.877094 0.125461
128 1 0.866634 0.877711 0.124484
129 1 1.00316 -0.00835871 0.25543
130 1 0.131077 -0.00307308 0.247691
131 1 0.259616 -0.00566675 0.247668
132 1 0.378249 -0.0014728 0.247808
133 1 0.495443 -0.00507468 0.259298
134 1 0.631438 0.00447781 0.246936
135 1 0.749836 0.0016047 0.248921
136 1 0.882435 0.000443836 0.245523
137 1 1.00318 0.122342 0.250386
138 1 0.122677 0.127111 0.249835
139 1 0.240033 0.118272 0.267467
140 1 0.375028 0.120268 0.255476
141 1 0.505133 0.131038 0.244217
142 1 0.62624 0.126334 0.25178
143 1 0.758439 0.129243 0.241811
144 1 0.878361 0.123583 0.249067
145 1 0.991008 0.254376 0.246576
146 1 0.12509 0.250936 0.255182
147 1 0.249784 0.246696 0.254596
148 1 0.375098 0.250884 0.247949
149 1 0.50992 0.250666 0.246566
150 1 0.628055 0.252466 0.247625
151 1 0.754413 0.244786 0.247299
152 1 0.873993 0.253132 0.24687
153 1 1.00206 0.377283 0.246428
154 1 0.129012 0.375823 0.24871
155 1 0.24766 0.383544 0.244681
156 1 0.375969 0.386055 0.23956
157 1 0.494955 0.386805 0.252461
158 1 0.632125 0.370475 0.250465
159 1 0.750099 0.377209 0.251188
160 1 0.874326 0.386088 0.244692
161 1 1.00017 0.505207 0.242214
162 1 0.123618 0.506784 0.253307
163 1 0.252766 0.503921 0.252375
164 1 0.370653 0.508037 0.250485
165 1 0.506469 0.503598 0.242221
166 1 0.627224 0.49094 0.262586
167 1 0.756546 0.503248 0.246792
168 1 0.871254 0.501842 0.248715
169 1 0.993 0.622598 0.255103
170 1 0.130753 0.623331 0.256684
171 1 0.251692 0.625913 0.249697
172 1 0.377638 0.632947 0.243882
173 1 0.500102 0.623272 0.247041
174 1 0.630855 0.616579 0.250007
175 1 0.748382 0.625967 0.251339
176 1 0.884368 0.626263 0.24288
177 1 1.00249 0.746965 0.249929
178 1 0.119047 0.738535 0.264282
179 1 0.23897 0.75126 0.254569
180 1 0.368889 0.748111 0.253512
181 1 0.503443 0.742753 0.250034
182 1 0.631901 0.746106 0.253067
183 1 0.750083 0.752686 0.2479
184 1 0.869891 0.75707 0.249322
185 1 1.00858 0.864586 0.253003
186 1 0.125325 0.876368 0.25223
187 1 0.245786 0.872143 0.256949
188 1 0.376134 0.867495 0.254725
189 1 0.499347 0.86223 0.256444
190 1 0.623208 0.883689 0.248037
191 1 0.746657 0.877298 0.248796
192 1 0.880319 0.867708 0.254343
193 1 1.00448 -0.00194411 0.369104
194 1 0.136317 -0.00582848 0.373386
195 1 0.250435 -0.00533503 0.367949
196 1 0.361561 -0.000624711 0.384241
197 1 0.496941 -0.00105698 0.368939
198 1 0.627258 -0.00708055 0.376146
199 1 0.761373 -0.000788466 0.366908
200 1 0.882528 -0.00204382 0.37269
201 1 1.00873 0.125611 0.367718
202 1 0.116717 0.120335 0.38309
203 1 0.246931 0.115318 0.386281
204 1 0.384735 0.12725 0.370364
205 1 0.509006 0.118922 0.369157
206 1 0.633222 0.13033 0.366659
207 1 0.755899 0.119749 0.370514
208 1 0.877098 0.129876 0.373848
209 1 0.99983 0.243893 0.370352
210 1 0.122026 0.251534 0.383662
211 1 0.25027 0.236517 0.386186
212 1 0.380982 0.245331 0.37101
213 1 0.503296 0.255525 0.371831
214 1 0.632919 0.247058 0.378071
215 1 0.760724 0.248849 0.373828
216 1 0.874922 0.24726 0.379426
217 1 0.998583 0.375839 0.373976
218 1 0.123962 0.380934 0.367553
219 1 0.24703 0.368896 0.381665
220 1 0.37283 0.374037 0.367115
221 1 0.504647 0.370752 0.374409
222 1 0.62683 0.371033 0.38626
223 1 0.755791 0.372884 0.372976
224 1 0.870919 0.380321 0.377603
225 1 1.0032 0.49779 0.379679
226 1 0.136331 0.491054 0.374981
227 1 0.25493 0.494979 0.378025
228 1 0.386948 0.493121 0.368656
229 1 0.506368 0.503653 0.370969
230 1 0.630865 0.499688 0.383772
231 1 0.750472 0.497063 0.375039
232 1 0.879224 0.502605 0.367946
233 1 0.99559 0.624674 0.377791
234 1 0.130111 0.616534 0.382918
235 1 0.259278 0.627302 0.374943
236 1 0.379148 0.621616 0.376066
237 1 0.512651 0.61099 0.371087
238 1 0.621387 0.628526 0.382015
239 1 0.761249 0.618215 0.365999
240 1 0.873014 0.62993 0.366497
241 1 0.998334 0.739803 0.381906
242 1 0.119261 0.744636 0.38629
243 1 0.256609 0.745297 0.378545
244 1 0.392496 0.735382 0.37333
245 1 0.50309 0.748012 0.380353
246 1 0.622109 0.756677 0.373744
247 1 0.744286 0.758508 0.373606
248 1 0.868834 0.743364 0.375227
249 1 1.00868 0.864679 0.378089
250 1 0.127467 0.863872 0.380127
251 1 0.25225 0.860349 0.382456
252 1 0.378492 0.875487 0.377208
253 1 0.494603 0.872379 0.379335
254 1 0.615475 0.876564 0.377684
255 1 0.76033 0.875927 0.369467
256 1 0.87397 0.871968 0.375797
257 1 1.01156 0.000351911 0.491915
258 1 0.12365 -0.00292308 0.497842
259 1 0.242516 -0.0046488 0.503717
260 1 0.369962 -0.00501322 0.504338
261 1 0.495094 0.00368481 0.490065
262 1 0.617835 0.00637353 0.501325
263 1 0.753746 -0.000198869 0.504191
264 1 0.879584 0.00259323 0.491988
265 1 0.992128 0.133292 0.503885
266 1 0.121886 0.125683 0.504539
267 1 0.251539 0.117096 0.507854
268 1 0.374313 0.129934 0.490972
269 1 0.495872 0.121033 0.496093
270 1 0.622778 0.120362 0.502786
271 1 0.748591 0.125775 0.49091
272 1 0.867201 0.130615 0.497296
273 1 0.997586 0.26 0.496284
274 1 0.124764 0.254965 0.496718
275 1 0.256414 0.252532 0.499672
276 1 0.375417 0.250971 0.49985
277 1 0.505098 0.241748 0.501015
278 1 0.624436 0.246589 0.509464
279 1 0.750826 0.249498 0.500902
280 1 0.867687 0.2544 0.503655
281 1 1.00072 0.378052 0.505438
282 1 0.122632 0.371464 0.504691
283 1 0.250394 0.379146 0.500099
284 1 0.386275 0.361115 0.497306
285 1 0.50016 0.36853 0.501815
286 1 0.628128 0.379271 0.497118
287 1 0.745959 0.383549 0.496285
288 1 0.880467 0.378432 0.498276
289 1 1.0009 0.509678 0.500653
290 1 0.139036 0.491564 0.500802
291 1 0.261604 0.499072 0.498178
292 1 0.378024 0.49767 0.494001
293 1 0.498785 0.486443 0.49932
294 1 0.617295 0.511001 0.503121
295 1 0.749147 0.506424 0.496468
296 1 0.880108 0.504532 0.492271
297 1 1.00269 0.621726 0.502832
298 1 0.130834 0.624116 0.501564
299 1 0.24945 0.624494 0.503164
300 1 0.384761 0.622593 0.495491
301 1 0.499683 0.628544 0.504946
302 1 0.628318 0.630192 0.498328
303 1 0.75196 0.62781 0.499122
304 1 0.871622 0.629063 0.505832
305 1 0.99958 0.74747 0.506538
306 1 0.130516 0.749463 0.502587
307 1 0.26056 0.736726 0.501591
308 1 0.3808 0.749866 0.498668
309 1 0.493526 0.745666 0.510168
310 1 0.621789 0.748362 0.503178
311 1 0.74625 0.758766 0.498012
312 1 0.874036 0.755311 0.495379
313 1 1.00362 0.876848 0.503298
314 1 0.128041 0.871236 0.501956
315 1 0.25013 0.868421 0.501526
316 1 0.36715 0.868435 0.502488
317 1 0.499836 0.877523 0.498376
318 1 0.619205 0.888244 0.495503
319 1 0.745704 0.880518 0.497902
320 1 0.876847 0.872492 0.50052
321 1 1.00242 0.00193239 0.626272
322 1 0.118835 0.00263486 0.628928
323 1 0.236517 0.00613575 0.634099
324 1 0.372456 0.000502859 0.618916
325 1 0.483942 -0.00655985 0.642314
326 1 0.619056 0.00192817 0.622569
327 1 0.747309 0.00531426 0.622416
328 1 0.883897 -0.00196417 0.618483
329 1 0.994154 0.130422 0.624345
330 1 0.122418 0.122839 0.632506
331 1 0.249148 0.133262 0.618569
332 1 0.368586 0.125326 0.618386
333 1 0.494339 0.1219 0.623968
334 1 0.626636 0.127744 0.624248
335 1 0.751892 0.126746 0.617101
336 1 0.878848 0.123452 0.62021
337 1 0.991107 0.243662 0.631568
338 1 0.124298 0.251016 0.618973
339 1 0.248279 0.253812 0.622561
340 1 0.373905 0.240773 0.626352
341 1 0.500282 0.246951 0.628593
342 1 0.63081 0.247744 0.628649
343 1 0.745545 0.25349 0.622964
344 1 0.868248 0.248807 0.62541
345 1 0.998725 0.368837 0.624387
346 1 0.120144 0.36862 0.627789
347 1 0.252838 0.371778 0.625897
348 1 0.37081 0.37506 0.625548
349 1 0.503915 0.366451 0.62441
350 1 0.623967 0.383559 0.621339
351 1 0.75432 0.378841 0.61088
352 1 0.873122 0.378368 0.621683
353 1 1.00492 0.494146 0.629462
354 1 0.136114 0.48966 0.616325
355 1 0.252543 0.495378 0.631306
356 1 0.373809 0.506129 0.629344
357 1 0.506074 0.503028 0.618347
358 1 0.625412 0.503191 0.622862
359 1 0.75598 0.502562 0.621226
360 1 0.880419 0.499941 0.614287
361 1 1.00519 0.616359 0.630882
362 1 0.118823 0.622294 0.634614
363 1 0.250437 0.622046 0.622285
364 1 0.366018 0.624606 0.636133
365 1 0.500504 0.624766 0.629339
366 1 0.628611 0.631049 0.628606
367 1 0.753628 0.630776 0.615471
368 1 0.878173 0.617381 0.625197
369 1 1.00522 0.748856 0.621517
370 1 0.118815 0.752792 0.622691
371 1 0.249974 0.742823 0.626785
372 1 0.369906 0.746887 0.6297
373 1 0.498284 0.748389 0.627361
374 1 0.616751 0.768477 0.619093
375 1 0.751134 0.754412 0.620207
376 1 0.86659 0.76287 0.620877
377 1 1.00741 0.876193 0.617436
378 1 0.124722 0.873708 0.626054
379 1 0.241049 0.887245 0.630592
380 1 0.363683 0.875057 0.629436
381 1 0.489454 0.872727 0.630822
382 1 0.627532 0.881799 0.623968
383 1 0.747994 0.88568 0.623503
384 1 0.879876 0.878159 0.625608
385 1 0.993134 0.00636739 0.747435
386 1 0.117274 0.00304146 0.756842
387 1 0.252965 -0.00202224 0.747535
388 1 0.361986 -0.000615769 0.76326
389 1 0.495585 0.000666061 0.750658
390 1 0.619303 -1.24851e-05 0.74823
391 1 0.742381 0.00108825 0.751142
392 1 0.862589 0.0150425 0.746211
393 1 1.0007 0.121639 0.751159
394 1 0.130256 0.121691 0.754729
395 1 0.248756 0.132281 0.74564
396 1 0.3751 0.109749 0.757528
397 1 0.498519 0.12425 0.757299
398 1 0.620138 0.122527 0.755351
399 1 0.736114 0.132445 0.747875
400 1 0.870866 0.128266 0.74822
401 1 0.99802 0.247555 0.750916
402 1 0.115468 0.250941 0.749196
403 1 0.258686 0.242917 0.752179
404 1 0.375562 0.251421 0.743194
405 1 0.499571 0.25175 0.753574
406 1 0.614458 0.248937 0.754728
407 1 0.739798 0.246457 0.75237
408 1 0.871218 0.250361 0.744991
409 1 0.991261 0.377458 0.748084
410 1 0.134658 0.363289 0.745829
411 1 0.24931 0.370185 0.75602
412 1 0.374993 0.366865 0.751496
413 1 0.49423 0.380834 0.750416
414 1 0.631563 0.374042 0.74417
415 1 0.743726 0.374536 0.745398
416 1 0.864149 0.37311 0.751023
417 1 1.00216 0.496844 0.749491
418 1 0.13127 0.496593 0.745879
419 1 0.251262 0.491446 0.754334
420 1 0.362268 0.50251 0.760729
421 1 0.494441 0.505871 0.749463
422 1 0.628312 0.499381 0.74815
423 1 0.749647 0.497744 0.743554
424 1 0.879479 0.502422 0.743893
425 1 1.00757 0.620313 0.751785
426 1 0.126422 0.627497 0.749474
427 1 0.247902 0.614269 0.759536
428 1 0.372547 0.620363 0.752249
429 1 0.505325 0.61749 0.758486
430 1 0.628823 0.628546 0.74492
431 1 0.757651 0.622647 0.744929
432 1 0.875821 0.621677 0.743593
433 1 1.00929 0.751369 0.747616
434 1 0.131047 0.748407 0.75116
435 1 0.249768 0.749192 0.749611
436 1 0.378522 0.755046 0.742876
437 1 0.502921 0.7475 0.743808
438 1 0.623541 0.755564 0.748414
439 1 0.754406 0.748323 0.740734
440 1 0.877295 0.752405 0.742473
441 1 0.989081 0.885462 0.747865
442 1 0.116974 0.881135 0.753811
443 1 0.241883 0.88061 0.758348
444 1 0.374081 0.882727 0.751088
445 1 0.502716 0.871266 0.756368
446 1 0.626277 0.875697 0.749547
447 1 0.754614 0.875181 0.747772
448 1 0.873335 0.8767 0.749812
449 1 0.991447 0.00425916 0.88076
450 1 0.120839 -0.00604373 0.883257
451 1 0.243109 -0.00429178 0.872585
452 1 0.373763 -0.00164486 0.880564
453 1 0.493671 0.000128987 0.882681
454 1 0.626794 -0.00568304 0.876447
455 1 0.744353 -0.00471482 0.877996
456 1 0.874833 0.00199091 0.871891
457 1 1.00594 0.124641 0.868547
458 1 0.119104 0.123996 0.881152
459 1 0.256495 0.118282 0.870157
460 1 0.372214 0.129065 0.87143
461 1 0.502772 0.118146 0.884611
462 1 0.624601 0.125493 0.879426
463 1 0.748472 0.116163 0.877006
464 1 0.872852 0.126123 0.879143
465 1 1.00157 0.246692 0.881428
466 1 0.130216 0.257732 0.868056
467 1 0.251433 0.246313 0.876416
468 1 0.370735 0.245295 0.879312
469 1 0.493577 0.239302 0.884368
470 1 0.620122 0.258289 0.868988
471 1 0.747224 0.249334 0.860691
472 1 0.873188 0.249952 0.875267
473 1 0.995912 0.373248 0.879878
474 1 0.124629 0.382651 0.874852
475 1 0.250424 0.36779 0.881561
476 1 0.375136 0.378875 0.871435
477 1 0.490316 0.382744 0.867873
478 1 0.61942 0.376189 0.876384
479 1 0.747285 0.367745 0.875483
480 1 0.877818 0.374344 0.86594
481 1 0.99936 0.495981 0.869662
482 1 0.129172 0.498317 0.878933
483 1 0.24617 0.500951 0.885284
484 1 0.370815 0.504113 0.875406
485 1 0.500923 0.500154 0.874021
486 1 0.628753 0.499351 0.871259
487 1 0.757726 0.492799 0.873177
488 1 0.874351 0.493949 0.874425
489 1 0.997935 0.627577 0.870069
490 1 0.118961 0.625275 0.883439
491 1 0.245383 0.623971 0.875481
492 1 0.372366 0.625122 0.878371
493 1 0.501976 0.625977 0.872957
494 1 0.632488 0.621433 0.872086
495 1 0.760891 0.617504 0.868741
496 1 0.87585 0.621842 0.872226
497 1 1.00234 0.751182 0.877317
498 1 0.131626 0.748964 0.870867
499 1 0.245067 0.750933 0.874482
500 1 0.374844 0.756285 0.86693
501 1 0.512456 0.751106 0.872252
502 1 0.641129 0.743217 0.87092
503 1 0.756537 0.749876 0.868812
504 1 0.885965 0.751268 0.864512
505 1 0.997697 0.869261 0.882031
506 1 0.112396 0.877676 0.875244
507 1 0.246304 0.867842 0.884279
508 1 0.379213 0.871158 0.88105
509 1 0.506952 0.873113 0.878765
510 1 0.629382 0.874979 0.878027
511 1 0.754748 0.873225 0.875764
512 1 0.879401 0.880318 0.868042
ITEM: TIMESTEP
100000
ITEM: NUMBER OF ATOMS
512
ITEM: BOX BOUNDS xy xz yz pp pp pp
-5.0015364047020228e-02 4.6296981253353977e+01 1.1586749224653657e+01