ITEM: TIMESTEP
0
ITEM: NUMBER OF ATOMS
512
ITEM: BOX BOUNDS xy xz yz pp pp pp
0.0000000000000000e+00 4.3878081289999997e+01 1.0969520320000001e+01
0.0000000000000000e+00 2.5333022050000000e+01 1.0969520320000001e+01
0.0000000000000000e+00 1.7913151670000001e+01 6.3332555099999999e+00
ITEM: ATOMS id type xs ys zs
1 1 0 0 0
2 1 0.125 0 0
3 1 0.25 0 0
4 1 0.375 0 0
5 1 0.5 0 0
6 1 0.625 0 0
7 1 0.75 0 0
8 1 0.875 0 0
9 1 1 0.125 0
10 1 0.125 0.125 0
11 1 0.25 0.125 0
12 1 0.375 0.125 0
13 1 0.5 0.125 0
14 1 0.625 0.125 0
15 1 0.75 0.125 0
16 1 0.875 0.125 0
17 1 1 0.25 0
18 1 0.125 0.25 0
19 1 0.25 0.25 0
20 1 0.375 0.25 0
21 1 0.5 0.25 0
22 1 0.625 0.25 0
23 1 0.75 0.25 0
24 1 0.875 0.25 0
25 1 1 0.375 0
26 1 0.125 0.375 0
27 1 0.25 0.375 0
28 1 0.375 0.375 0
29 1 0.5 0.375 0
30 1 0.625 0.375 0
31 1 0.75 0.375 0
32 1 0.875 0.375 0
33 1 3.45281e-10 0.5 0
34 1 0.125 0.5 0
35 1 0.25 0.5 0
36 1 0.375 0.5 0
37 1 0.5 0.5 0
38 1 0.625 0.5 0
39 1 0.75 0.5 0
40 1 0.875 0.5 0
41 1 1 0.625 0
42 1 0.125 0.625 0
43 1 0.25 0.625 0
44 1 0.375 0.625 0
45 1 0.5 0.625 0
46 1 0.625 0.625 0
47 1 0.75 0.625 0
48 1 0.875 0.625 0
49 1 1 0.75 0
50 1 0.125 0.75 0
51 1 0.25 0.75 0
52 1 0.375 0.75 0
53 1 0.5 0.75 0
54 1 0.625 0.75 0
55 1 0.75 0.75 0
56 1 0.875 0.75 0
57 1 1.29488e-10 0.875 0
58 1 0.125 0.875 0
59 1 0.25 0.875 0
60 1 0.375 0.875 0
61 1 0.5 0.875 0
62 1 0.625 0.875 0
63 1 0.75 0.875 0
64 1 0.875 0.875 0
65 1 1 4.58324e-10 0.125
66 1 0.125 4.58324e-10 0.125
67 1 0.25 4.58324e-10 0.125
68 1 0.375 4.58324e-10 0.125
69 1 0.5 4.58324e-10 0.125
70 1 0.625 4.58324e-10 0.125
71 1 0.75 4.58324e-10 0.125
72 1 0.875 4.58324e-10 0.125
73 1 1 0.125 0.125
74 1 0.125 0.125 0.125
75 1 0.25 0.125 0.125
76 1 0.375 0.125 0.125
77 1 0.5 0.125 0.125
78 1 0.625 0.125 0.125
79 1 0.75 0.125 0.125
80 1 0.875 0.125 0.125
81 1 1 0.25 0.125
82 1 0.125 0.25 0.125
83 1 0.25 0.25 0.125
84 1 0.375 0.25 0.125
85 1 0.5 0.25 0.125
86 1 0.625 0.25 0.125
87 1 0.75 0.25 0.125
88 1 0.875 0.25 0.125
89 1 2.41756e-10 0.375 0.125
90 1 0.125 0.375 0.125
91 1 0.25 0.375 0.125
92 1 0.375 0.375 0.125
93 1 0.5 0.375 0.125
94 1 0.625 0.375 0.125
95 1 0.75 0.375 0.125
96 1 0.875 0.375 0.125
97 1 1 0.5 0.125
98 1 0.125 0.5 0.125
99 1 0.25 0.5 0.125
100 1 0.375 0.5 0.125
101 1 0.5 0.5 0.125
102 1 0.625 0.5 0.125
103 1 0.75 0.5 0.125
104 1 0.875 0.5 0.125
105 1 1 0.625 0.125
106 1 0.125 0.625 0.125
107 1 0.25 0.625 0.125
108 1 0.375 0.625 0.125
109 1 0.5 0.625 0.125
110 1 0.625 0.625 0.125
111 1 0.75 0.625 0.125
112 1 0.875 0.625 0.125
113 1 2.59642e-11 0.75 0.125
114 1 0.125 0.75 0.125
115 1 0.25 0.75 0.125
116 1 0.375 0.75 0.125
117 1 0.5 0.75 0.125
118 1 0.625 0.75 0.125
119 1 0.75 0.75 0.125
120 1 0.875 0.75 0.125
121 1 3.9439e-10 0.875 0.125
122 1 0.125 0.875 0.125
123 1 0.25 0.875 0.125
124 1 0.375 0.875 0.125
125 1 0.5 0.875 0.125
126 1 0.625 0.875 0.125
127 1 0.75 0.875 0.125
128 1 0.875 0.875 0.125
129 1 1 1.9898e-10 0.25
130 1 0.125 1.9898e-10 0.25
131 1 0.25 1.9898e-10 0.25
132 1 0.375 1.9898e-10 0.25
133 1 0.5 1.9898e-10 0.25
134 1 0.625 1.9898e-10 0.25
135 1 0.75 1.9898e-10 0.25
136 1 0.875 1.9898e-10 0.25
137 1 1 0.125 0.25
138 1 0.125 0.125 0.25
139 1 0.25 0.125 0.25
140 1 0.375 0.125 0.25
141 1 0.5 0.125 0.25
142 1 0.625 0.125 0.25
143 1 0.75 0.125 0.25
144 1 0.875 0.125 0.25
145 1 2.1531e-10 0.25 0.25
146 1 0.125 0.25 0.25
147 1 0.25 0.25 0.25
148 1 0.375 0.25 0.25
149 1 0.5 0.25 0.25
150 1 0.625 0.25 0.25
151 1 0.75 0.25 0.25
152 1 0.875 0.25 0.25
153 1 1 0.375 0.25
154 1 0.125 0.375 0.25
155 1 0.25 0.375 0.25
156 1 0.375 0.375 0.25
157 1 0.5 0.375 0.25
158 1 0.625 0.375 0.25
159 1 0.75 0.375 0.25
160 1 0.875 0.375 0.25
161 1 1 0.5 0.25
162 1 0.125 0.5 0.25
163 1 0.25 0.5 0.25
164 1 0.375 0.5 0.25
165 1 0.5 0.5 0.25
166 1 0.625 0.5 0.25
167 1 0.75 0.5 0.25
168 1 0.875 0.5 0.25
169 1 1 0.625 0.25
170 1 0.125 0.625 0.25
171 1 0.25 0.625 0.25
172 1 0.375 0.625 0.25
173 1 0.5 0.625 0.25
174 1 0.625 0.625 0.25
175 1 0.75 0.625 0.25
176 1 0.875 0.625 0.25
177 1 1 0.75 0.25
178 1 0.125 0.75 0.25
179 1 0.25 0.75 0.25
180 1 0.375 0.75 0.25
181 1 0.5 0.75 0.25
182 1 0.625 0.75 0.25
183 1 0.75 0.75 0.25
184 1 0.875 0.75 0.25
185 1 1 0.875 0.25
186 1 0.125 0.875 0.25
187 1 0.25 0.875 0.25
188 1 0.375 0.875 0.25
189 1 0.5 0.875 0.25
190 1 0.625 0.875 0.25
191 1 0.75 0.875 0.25
192 1 0.875 0.875 0.25
193 1 1 3.17066e-10 0.375
194 1 0.125 3.17066e-10 0.375
195 1 0.25 3.17066e-10 0.375
196 1 0.375 3.17066e-10 0.375
197 1 0.5 3.17066e-10 0.375
198 1 0.625 3.17066e-10 0.375
199 1 0.75 3.17066e-10 0.375
200 1 0.875 3.17066e-10 0.375
201 1 3.47073e-11 0.125 0.375
202 1 0.125 0.125 0.375
203 1 0.25 0.125 0.375
204 1 0.375 0.125 0.375
205 1 0.5 0.125 0.375
206 1 0.625 0.125 0.375
207 1 0.75 0.125 0.375
208 1 0.875 0.125 0.375
209 1 1 0.25 0.375
210 1 0.125 0.25 0.375
211 1 0.25 0.25 0.375
212 1 0.375 0.25 0.375
213 1 0.5 0.25 0.375
214 1 0.625 0.25 0.375
215 1 0.75 0.25 0.375
216 1 0.875 0.25 0.375
217 1 1 0.375 0.375
218 1 0.125 0.375 0.375
219 1 0.25 0.375 0.375
220 1 0.375 0.375 0.375
221 1 0.5 0.375 0.375
222 1 0.625 0.375 0.375
223 1 0.75 0.375 0.375
224 1 0.875 0.375 0.375
225 1 8.20762e-11 0.5 0.375
226 1 0.125 0.5 0.375
227 1 0.25 0.5 0.375
228 1 0.375 0.5 0.375
229 1 0.5 0.5 0.375
230 1 0.625 0.5 0.375
231 1 0.75 0.5 0.375
232 1 0.875 0.5 0.375
233 1 1.87341e-10 0.625 0.375
234 1 0.125 0.625 0.375
235 1 0.25 0.625 0.375
236 1 0.375 0.625 0.375
237 1 0.5 0.625 0.375
238 1 0.625 0.625 0.375
239 1 0.75 0.625 0.375
240 1 0.875 0.625 0.375
241 1 2.68122e-11 0.75 0.375
242 1 0.125 0.75 0.375
243 1 0.25 0.75 0.375
244 1 0.375 0.75 0.375
245 1 0.5 0.75 0.375
246 1 0.625 0.75 0.375
247 1 0.75 0.75 0.375
248 1 0.875 0.75 0.375
249 1 1.32077e-10 0.875 0.375
250 1 0.125 0.875 0.375
251 1 0.25 0.875 0.375
252 1 0.375 0.875 0.375
253 1 0.5 0.875 0.375
254 1 0.625 0.875 0.375
255 1 0.75 0.875 0.375
256 1 0.875 0.875 0.375
257 1 1.94344e-10 2.43805e-10 0.5
258 1 0.125 2.43805e-10 0.5
259 1 0.25 2.43805e-10 0.5
260 1 0.375 2.43805e-10 0.5
261 1 0.5 2.43805e-10 0.5
262 1 0.625 2.43805e-10 0.5
263 1 0.75 2.43805e-10 0.5
264 1 0.875 2.43805e-10 0.5
265 1 1 0.125 0.5
266 1 0.125 0.125 0.5
267 1 0.25 0.125 0.5
268 1 0.375 0.125 0.5
269 1 0.5 0.125 0.5
270 1 0.625 0.125 0.5
271 1 0.75 0.125 0.5
272 1 0.875 0.125 0.5
273 1 1 0.25 0.5
274 1 0.125 0.25 0.5
275 1 0.25 0.25 0.5
276 1 0.375 0.25 0.5
277 1 0.5 0.25 0.5
278 1 0.625 0.25 0.5
279 1 0.75 0.25 0.5
280 1 0.875 0.25 0.5
281 1 1 0.375 0.5
282 1 0.125 0.375 0.5
283 1 0.25 0.375 0.5
284 1 0.375 0.375 0.5
285 1 0.5 0.375 0.5
286 1 0.625 0.375 0.5
287 1 0.75 0.375 0.5
288 1 0.875 0.375 0.5
289 1 8.38162e-11 0.5 0.5
290 1 0.125 0.5 0.5
291 1 0.25 0.5 0.5
292 1 0.375 0.5 0.5
293 1 0.5 0.5 0.5
294 1 0.625 0.5 0.5
295 1 0.75 0.5 0.5
296 1 0.875 0.5 0.5
297 1 1 0.625 0.5
298 1 0.125 0.625 0.5
299 1 0.25 0.625 0.5
300 1 0.375 0.625 0.5
301 1 0.5 0.625 0.5
302 1 0.625 0.625 0.5
303 1 0.75 0.625 0.5
304 1 0.875 0.625 0.5
305 1 2.91713e-10 0.75 0.5
306 1 0.125 0.75 0.5
307 1 0.25 0.75 0.5
308 1 0.375 0.75 0.5
309 1 0.5 0.75 0.5
310 1 0.625 0.75 0.5
311 1 0.75 0.75 0.5
312 1 0.875 0.75 0.5
313 1 1 0.875 0.5
314 1 0.125 0.875 0.5
315 1 0.25 0.875 0.5
316 1 0.375 0.875 0.5
317 1 0.5 0.875 0.5
318 1 0.625 0.875 0.5
319 1 0.75 0.875 0.5
320 1 0.875 0.875 0.5
321 1 1 5.16046e-10 0.625
322 1 0.125 5.16046e-10 0.625
323 1 0.25 5.16046e-10 0.625
324 1 0.375 5.16046e-10 0.625
325 1 0.5 5.16046e-10 0.625
326 1 0.625 5.16046e-10 0.625
327 1 0.75 5.16046e-10 0.625
328 1 0.875 5.16046e-10 0.625
329 1 1 0.125 0.625
330 1 0.125 0.125 0.625
331 1 0.25 0.125 0.625
332 1 0.375 0.125 0.625
333 1 0.5 0.125 0.625
334 1 0.625 0.125 0.625
335 1 0.75 0.125 0.625
336 1 0.875 0.125 0.625
337 1 1 0.25 0.625
338 1 0.125 0.25 0.625
339 1 0.25 0.25 0.625
340 1 0.375 0.25 0.625
341 1 0.5 0.25 0.625
342 1 0.625 0.25 0.625
343 1 0.75 0.25 0.625
344 1 0.875 0.25 0.625
345 1 1 0.375 0.625
346 1 0.125 0.375 0.625
347 1 0.25 0.375 0.625
348 1 0.375 0.375 0.625
349 1 0.5 0.375 0.625
350 1 0.625 0.375 0.625
351 1 0.75 0.375 0.625
352 1 0.875 0.375 0.625
353 1 1 0.5 0.625
354 1 0.125 0.5 0.625
355 1 0.25 0.5 0.625
356 1 0.375 0.5 0.625
357 1 0.5 0.5 0.625
358 1 0.625 0.5 0.625
359 1 0.75 0.5 0.625
360 1 0.875 0.5 0.625
361 1 1 0.625 0.625
362 1 0.125 0.625 0.625
363 1 0.25 0.625 0.625
364 1 0.375 0.625 0.625
365 1 0.5 0.625 0.625
366 1 0.625 0.625 0.625
367 1 0.75 0.625 0.625
368 1 0.875 0.625 0.625
369 1 1 0.75 0.625
370 1 0.125 0.75 0.625
371 1 0.25 0.75 0.625
372 1 0.375 0.75 0.625
373 1 0.5 0.75 0.625
374 1 0.625 0.75 0.625
375 1 0.75 0.75 0.625
376 1 0.875 0.75 0.625
377 1 1 0.875 0.625
378 1 0.125 0.875 0.625
379 1 0.25 0.875 0.625
380 1 0.375 0.875 0.625
381 1 0.5 0.875 0.625
382 1 0.625 0.875 0.625
383 1 0.75 0.875 0.625
384 1 0.875 0.875 0.625
385 1 1 6.28868e-10 0.75
386 1 0.125 6.28868e-10 0.75
387 1 0.25 6.28868e-10 0.75
388 1 0.375 6.28868e-10 0.75
389 1 0.5 6.28868e-10 0.75
390 1 0.625 6.28868e-10 0.75
391 1 0.75 6.28868e-10 0.75
392 1 0.875 6.28868e-10 0.75
393 1 3.4664e-11 0.125 0.75
394 1 0.125 0.125 0.75
395 1 0.25 0.125 0.75
396 1 0.375 0.125 0.75
397 1 0.5 0.125 0.75
398 1 0.625 0.125 0.75
399 1 0.75 0.125 0.75
400 1 0.875 0.125 0.75
401 1 1.39928e-10 0.25 0.75
402 1 0.125 0.25 0.75
403 1 0.25 0.25 0.75
404 1 0.375 0.25 0.75
405 1 0.5 0.25 0.75
406 1 0.625 0.25 0.75
407 1 0.75 0.25 0.75
408 1 0.875 0.25 0.75
409 1 1 0.375 0.75
410 1 0.125 0.375 0.75
411 1 0.25 0.375 0.75
412 1 0.375 0.375 0.75
413 1 0.5 0.375 0.75
414 1 0.625 0.375 0.75
415 1 0.75 0.375 0.75
416 1 0.875 0.375 0.75
417 1 8.46644e-11 0.5 0.75
418 1 0.125 0.5 0.75
419 1 0.25 0.5 0.75
420 1 0.375 0.5 0.75
421 1 0.5 0.5 0.75
422 1 0.625 0.5 0.75
423 1 0.75 0.5 0.75
424 1 0.875 0.5 0.75
425 1 1 0.625 0.75
426 1 0.125 0.625 0.75
427 1 0.25 0.625 0.75
428 1 0.375 0.625 0.75
429 1 0.5 0.625 0.75
430 1 0.625 0.625 0.75
431 1 0.75 0.625 0.75
432 1 0.875 0.625 0.75
433 1 2.94004e-11 0.75 0.75
434 1 0.125 0.75 0.75
435 1 0.25 0.75 0.75
436 1 0.375 0.75 0.75
437 1 0.5 0.75 0.75
438 1 0.625 0.75 0.75
439 1 0.75 0.75 0.75
440 1 0.875 0.75 0.75
441 1 1 0.875 0.75
442 1 0.125 0.875 0.75
443 1 0.25 0.875 0.75
444 1 0.375 0.875 0.75
445 1 0.5 0.875 0.75
446 1 0.625 0.875 0.75
447 1 0.75 0.875 0.75
448 1 0.875 0.875 0.75
449 1 1 5.60871e-10 0.875
450 1 0.125 5.60871e-10 0.875
451 1 0.25 5.60871e-10 0.875
452 1 0.375 5.60871e-10 0.875
453 1 0.5 5.60871e-10 0.875
454 1 0.625 5.60871e-10 0.875
455 1 0.75 5.60871e-10 0.875
456 1 0.875 5.60871e-10 0.875
457 1 3.64038e-11 0.125 0.875
458 1 0.125 0.125 0.875
459 1 0.25 0.125 0.875
460 1 0.375 0.125 0.875
461 1 0.5 0.125 0.875
462 1 0.625 0.125 0.875
463 1 0.75 0.125 0.875
464 1 0.875 0.125 0.875
465 1 1 0.25 0.875
466 1 0.125 0.25 0.875
467 1 0.25 0.25 0.875
468 1 0.375 0.25 0.875
469 1 0.5 0.25 0.875
470 1 0.625 0.25 0.875
471 1 0.75 0.25 0.875
472 1 0.875 0.25 0.875
473 1 1 0.375 0.875
474 1 0.125 0.375 0.875
475 1 0.25 0.375 0.875
476 1 0.375 0.375 0.875
477 1 0.5 0.375 0.875
478 1 0.625 0.375 0.875
479 1 0.75 0.375 0.875
480 1 0.875 0.375 0.875
481 1 1 0.5 0.875
482 1 0.125 0.5 0.875
483 1 0.25 0.5 0.875
484 1 0.375 0.5 0.875
485 1 0.5 0.5 0.875
486 1 0.625 0.5 0.875
487 1 0.75 0.5 0.875
488 1 0.875 0.5 0.875
489 1 1.89037e-10 0.625 0.875
490 1 0.125 0.625 0.875
491 1 0.25 0.625 0.875
492 1 0.375 0.625 0.875
493 1 0.5 0.625 0.875
494 1 0.625 0.625 0.875
495 1 0.75 0.625 0.875
496 1 0.875 0.625 0.875
497 1 1 0.75 0.875
498 1 0.125 0.75 0.875
499 1 0.25 0.75 0.875
500 1 0.375 0.75 0.875
501 1 0.5 0.75 0.875
502 1 0.625 0.75 0.875
503 1 0.75 0.75 0.875
504 1 0.875 0.75 0.875
505 1 3.26421e-10 0.875 0.875
506 1 0.125 0.875 0.875
507 1 0.25 0.875 0.875
508 1 0.375 0.875 0.875
509 1 0.5 0.875 0.875
510 1 0.625 0.875 0.875
511 1 0.75 0.875 0.875
512 1 0.875 0.875 0.875
ITEM: TIMESTEP
50000
ITEM: NUMBER OF ATOMS
512
ITEM: BOX BOUNDS xy xz yz pp pp pp
-6.3094105362733188e-02 4.4067363606032131e+01 1.1032614425334291e+01
-5.4641098080560724e-02 2.5424090546781770e+01 1.1032614425334291e+01
-5.1516121278138982e-02 1.7964667791277655e+01 6.3696829087011206e+00
ITEM: ATOMS id type xs ys zs
1 1 -0.00273562 -0.00305152 0.00418963
2 1 0.131212 0.00353285 -0.0107684
3 1 0.247945 0.00264572 0.00401301
4 1 0.38118 0.0137407 -0.015268
5 1 0.494963 0.0113669 -3.65437e-05
6 1 0.630991 0.00129155 -0.00760655
7 1 0.755769 -0.00521326 -0.00229733
8 1 0.87793 -0.00773104 0.000575643
9 1 0.996272 0.125668 -0.00223341
10 1 0.126137 0.126729 -0.00367345
11 1 0.247962 0.135747 -0.00558242
12 1 0.37696 0.133091 -0.00648138
13 1 0.513788 0.11627 -0.000836511
14 1 0.630092 0.120523 -0.00181189
15 1 0.756492 0.132655 -0.0082458
16 1 0.886128 0.121634 -0.00737376
17 1 0.995274 0.246386 0.00259654
18 1 0.118346 0.255063 0.0028259
19 1 0.254678 0.251118 -0.00142816
20 1 0.373399 0.249344 0.00228617
21 1 0.494726 0.248249 0.00229781
22 1 0.622914 0.247025 0.00512828
23 1 0.746258 0.247678 0.00310171
24 1 0.872254 0.243479 0.0033102
25 1 1.00144 0.368432 0.00015986
26 1 0.120976 0.383103 -0.000793498
27 1 0.247923 0.380338 0.000781389
28 1 0.375171 0.374252 0.00343314
29 1 0.503397 0.372066 -0.000292668
30 1 0.625311 0.367325 0.00278719
31 1 0.752314 0.371137 0.00384172
32 1 0.883243 0.366335 0.00405341
33 1 -0.00826445 0.506356 0.0106671
34 1 0.120602 0.503446 0.0050779
35 1 0.24262 0.503434 0.00479344
36 1 0.382075 0.493992 -0.000585749
37 1 0.506041 0.498763 -0.00103473
38 1 0.628801 0.494542 -0.00127834
39 1 0.753188 0.502901 -0.00869401
40 1 0.870208 0.506853 0.00169438
41 1 0.989381 0.62721 0.00826104
42 1 0.131833 0.631065 -0.00715197
43 1 0.251672 0.621087 0.00244928
44 1 0.375156 0.621432 0.00290045
45 1 0.497032 0.620848 0.00665203
46 1 0.618263 0.618751 0.00610979
47 1 0.743108 0.624504 0.00891105
48 1 0.86884 0.630655 -0.00351713
49 1 0.999897 0.746429 -0.00123687
50 1 0.126904 0.748922 0.0041371
51 1 0.245408 0.750025 0.00974773
52 1 0.370093 0.748712 0.00464486
53 1 0.489299 0.763652 0.00159976
54 1 0.622308 0.750191 -0.00340342
55 1 0.748741 0.744024 -0.00368835
56 1 0.872664 0.744485 -5.29239e-05
57 1 -0.000865769 0.869047 0.00603029
58 1 0.117315 0.879604 -0.0031044
59 1 0.248507 0.87604 0.00304746
60 1 0.371263 0.879998 0.00158421
61 1 0.499899 0.889574 -0.00434602
62 1 0.625281 0.877348 0.00306676
63 1 0.752379 0.87516 -0.00388999
64 1 0.877789 0.869577 -0.00221762
65 1 1.00281 -0.00445711 0.125086
66 1 0.120152 0.00779518 0.126373
67 1 0.248542 -0.00202578 0.12637
68 1 0.375266 0.00214453 0.118157
69 1 0.495788 -0.0026051 0.133199
70 1 0.626156 -0.00164621 0.119253
71 1 0.753666 0.00188728 0.119057
72 1 0.874842 -0.00168023 0.120275
73 1 0.996856 0.126047 0.129114
74 1 0.124602 0.125575 0.129065
75 1 0.256897 0.125064 0.117644
76 1 0.376119 0.125969 0.122943
77 1 0.494387 0.128385 0.123132
78 1 0.63711 0.117854 0.122177
79 1 0.756712 0.120908 0.121196
80 1 0.877021 0.116116 0.127811
81 1 1.00036 0.247866 0.128714
82 1 0.125737 0.248839 0.121682
83 1 0.251103 0.245455 0.13107
84 1 0.38023 0.249347 0.128063
85 1 0.500587 0.254447 0.123011
86 1 0.626401 0.24705 0.131645
87 1 0.755505 0.245944 0.123044
88 1 0.877665 0.252668 0.123762
89 1 -0.00457392 0.381235 0.118817
90 1 0.120777 0.377184 0.125187
91 1 0.250806 0.374194 0.130532
92 1 0.380376 0.374949 0.129079
93 1 0.508868 0.374903 0.127726
94 1 0.627355 0.372657 0.127803
95 1 0.751369 0.375543 0.125586
96 1 0.869025 0.37905 0.12355
97 1 0.991623 0.501091 0.131073
98 1 0.128198 0.502739 0.124574
99 1 0.258403 0.491693 0.130505
100 1 0.394067 0.495235 0.119246
101 1 0.506005 0.504945 0.121929
102 1 0.625908 0.498066 0.127634
103 1 0.740144 0.503313 0.12982
104 1 0.871555 0.49498 0.126516
105 1 0.999311 0.622416 0.126483
106 1 0.133977 0.619429 0.12437
107 1 0.255946 0.618007 0.125337
108 1 0.374355 0.625626 0.123817
109 1 0.499115 0.630404 0.12258
110 1 0.615331 0.629938 0.129169
111 1 0.748556 0.627594 0.122421
112 1 0.871361 0.626476 0.125622
113 1 -0.000670481 0.745783 0.127346
114 1 0.123519 0.748588 0.128828
115 1 0.246778 0.752245 0.127733
116 1 0.379424 0.746806 0.126027
117 1 0.496097 0.752564 0.130805
118 1 0.624478 0.750905 0.118392
119 1 0.74906 0.747198 0.122732
120 1 0.879993 0.742642 0.129305
121 1 -0.00695691 0.86753 0.135908
122 1 0.114512 0.882939 0.117426
123 1 0.246185 0.869012 0.132498
124 1 0.372034 0.879942 0.118299
125 1 0.498553 0.877976 0.12479
126 1 0.627998 0.871858 0.125735
127 1 0.752607 0.870541 0.121651
128 1 0.871889 0.87465 0.125561
129 1 1.00473 -0.00564352 0.25046
130 1 0.129359 -0.00645685 0.253828
131 1 0.255039 0.00253881 0.248208
132 1 0.384147 0.000761767 0.248793
133 1 0.502414 0.00255795 0.243655
134 1 0.62372 -0.00325823 0.251998
135 1 0.752746 -0.00273023 0.247924
136 1 0.883192 -0.00930923 0.247781
137 1 1.00073 0.125505 0.248931
138 1 0.135549 0.124342 0.246877
139 1 0.251706 0.127829 0.249262
140 1 0.373576 0.126275 0.250997
141 1 0.509781 0.129438 0.237612
142 1 0.627267 0.127164 0.249698
143 1 0.755671 0.119073 0.251117
144 1 0.881749 0.118986 0.248572
145 1 0.00247528 0.257354 0.240374
146 1 0.125592 0.255327 0.248089
147 1 0.254073 0.245982 0.253632
148 1 0.377516 0.245489 0.251687
149 1 0.499711 0.24911 0.250601
150 1 0.625376 0.250203 0.252333
151 1 0.748147 0.250312 0.252768
152 1 0.867463 0.245783 0.256807
153 1 0.992215 0.374406 0.252171
154 1 0.127518 0.376252 0.253756
155 1 0.256008 0.37262 0.251748
156 1 0.379977 0.372195 0.252188
157 1 0.507531 0.374662 0.245354
158 1 0.62402 0.375589 0.250834
159 1 0.752493 0.381359 0.241696
160 1 0.877971 0.371914 0.246849
161 1 1.00428 0.496688 0.253965
162 1 0.129486 0.503094 0.244104
163 1 0.250266 0.492493 0.253697
164 1 0.379854 0.493084 0.248321
165 1 0.500661 0.492468 0.253246
166 1 0.622889 0.499333 0.253398
167 1 0.75315 0.498355 0.249354
168 1 0.879051 0.496555 0.258135
169 1 1.00441 0.628 0.256287
170 1 0.128114 0.627689 0.248919
171 1 0.257974 0.622697 0.248201
172 1 0.374102 0.626476 0.252775
173 1 0.499513 0.623302 0.248793
174 1 0.633262 0.621906 0.24716
175 1 0.753373 0.616803 0.25515
176 1 0.873412 0.628244 0.251103
177 1 0.992936 0.75459 0.256918
178 1 0.12809 0.752691 0.248298
179 1 0.251973 0.752325 0.251979
180 1 0.38101 0.757504 0.246122
181 1 0.507678 0.747271 0.246591
182 1 0.625856 0.74443 0.25469
183 1 0.749788 0.748128 0.248981
184 1 0.875441 0.747795 0.25331
185 1 1.00749 0.873731 0.250217
186 1 0.129523 0.875215 0.257139
187 1 0.250667 0.878908 0.253344
188 1 0.376171 0.881808 0.248153
189 1 0.497474 0.866588 0.256106
190 1 0.62154 0.875226 0.250929
191 1 0.739584 0.87274 0.254269
192 1 0.864742 0.875567 0.255868
193 1 1.00606 0.0085663 0.374442
194 1 0.130624 0.000426435 0.378508
195 1 0.256371 -0.00657707 0.376991
196 1 0.376812 -4.99217e-05 0.37622
197 1 0.499315 -0.0024877 0.372559
198 1 0.618809 0.00252582 0.376666
199 1 0.751606 -0.00833801 0.377069
200 1 0.880669 0.000911596 0.36902
201 1 0.00810483 0.12895 0.37045
202 1 0.133221 0.120949 0.371178
203 1 0.250322 0.125212 0.376092
204 1 0.376171 0.120219 0.375566
205 1 0.498941 0.120987 0.382362
206 1 0.627163 0.119975 0.379946
207 1 0.752329 0.119655 0.377827
208 1 0.877802 0.121512 0.379085
209 1 0.99784 0.254643 0.370893
210 1 0.125879 0.250219 0.373503
211 1 0.253833 0.248984 0.369033
212 1 0.376379 0.249544 0.375693
213 1 0.497719 0.252161 0.373064
214 1 0.627979 0.251767 0.372295
215 1 0.743773 0.244067 0.374914
216 1 0.872059 0.248587 0.376058
217 1 0.999794 0.37049 0.373638
218 1 0.130433 0.371832 0.371013
219 1 0.25418 0.371772 0.375249
220 1 0.37846 0.375327 0.375497
221 1 0.501182 0.377878 0.373466
222 1 0.631048 0.373323 0.372682
223 1 0.748704 0.369975 0.376437
224 1 0.875718 0.373698 0.373757
225 1 -0.000245103 0.504484 0.370981
226 1 0.119729 0.498072 0.379065
227 1 0.253893 0.494958 0.375075
228 1 0.375461 0.505314 0.372701
229 1 0.502346 0.492713 0.379982
230 1 0.61707 0.501557 0.379627
231 1 0.7524 0.48611 0.375356
232 1 0.880176 0.499346 0.379396
233 1 0.00026406 0.626841 0.382572
234 1 0.12573 0.631299 0.368006
235 1 0.245476 0.629161 0.376551
236 1 0.371625 0.636844 0.369656
237 1 0.496396 0.623444 0.376143
238 1 0.62029 0.623066 0.376313
239 1 0.74527 0.620527 0.376926
240 1 0.875121 0.623341 0.371698
241 1 0.00324733 0.757698 0.371677
242 1 0.121604 0.755301 0.372908
243 1 0.249059 0.751818 0.370627
244 1 0.377309 0.750225 0.37332
245 1 0.504237 0.745168 0.373471
246 1 0.629909 0.746065 0.374289
247 1 0.745217 0.751972 0.383511
248 1 0.869686 0.754376 0.376407
249 1 -0.00280113 0.884648 0.380016
250 1 0.128078 0.878085 0.373665
251 1 0.258758 0.872708 0.371277
252 1 0.376688 0.870594 0.375541
253 1 0.503548 0.873035 0.371566
254 1 0.621794 0.86857 0.38065
255 1 0.746091 0.873052 0.36483
256 1 0.881089 0.866023 0.37856
257 1 0.00180032 0.00939427 0.496263
258 1 0.127698 0.0147354 0.494203
259 1 0.257734 0.000449151 0.495487
260 1 0.380781 -0.0078582 0.507452
261 1 0.501592 0.00234032 0.498887
262 1 0.625469 -0.00874692 0.505939
263 1 0.747068 -0.00293404 0.500323
264 1 0.882854 -0.00694258 0.491509
265 1 1.00587 0.130703 0.49075
266 1 0.131734 0.129343 0.494305
267 1 0.253383 0.123746 0.497333
268 1 0.379661 0.119161 0.505963
269 1 0.506278 0.122977 0.492519
270 1 0.628353 0.120903 0.500229
271 1 0.75561 0.114286 0.503462
272 1 0.876348 0.125162 0.499203
273 1 1.00779 0.244802 0.500586
274 1 0.127575 0.251889 0.493012
275 1 0.250173 0.247716 0.499894
276 1 0.380936 0.241762 0.499768
277 1 0.502215 0.247128 0.498374
278 1 0.621699 0.240972 0.507241
279 1 0.74237 0.246814 0.503164
280 1 0.882514 0.244749 0.496887
281 1 1.00195 0.377382 0.49759
282 1 0.124924 0.376923 0.497741
283 1 0.254964 0.373945 0.499071
284 1 0.378599 0.377168 0.493624
285 1 0.506923 0.373333 0.497344
286 1 0.628847 0.373059 0.502169
287 1 0.755292 0.372856 0.496957
288 1 0.88099 0.367548 0.49771
289 1 -0.0068924 0.503481 0.494703
290 1 0.128056 0.503259 0.494456
291 1 0.244667 0.50832 0.501706
292 1 0.371287 0.50444 0.492483
293 1 0.495041 0.503572 0.503539
294 1 0.619266 0.500326 0.505638
295 1 0.745598 0.499146 0.50149
296 1 0.874953 0.497136 0.498783
297 1 1.01082 0.621357 0.498869
298 1 0.118005 0.635861 0.498879
299 1 0.245694 0.635656 0.4949
300 1 0.365621 0.624064 0.510169
301 1 0.498243 0.630245 0.502804
302 1 0.62446 0.622912 0.500964
303 1 0.745932 0.622287 0.503152
304 1 0.870889 0.629171 0.499839
305 1 -0.00597499 0.761038 0.491465
306 1 0.125269 0.745995 0.505112
307 1 0.248121 0.757603 0.491615
308 1 0.371386 0.744588 0.505096
309 1 0.501108 0.752061 0.496523
310 1 0.622882 0.749697 0.510405
311 1 0.75125 0.756737 0.500295
312 1 0.871789 0.74732 0.501867
313 1 1.01007 0.875993 0.498033
314 1 0.123888 0.890051 0.49573
315 1 0.250971 0.876767 0.49876
316 1 0.374306 0.877583 0.499885
317 1 0.496974 0.870035 0.510223
318 1 0.622018 0.875334 0.499403
319 1 0.747544 0.873555 0.49492
320 1 0.867942 0.880284 0.496831
321 1 0.999778 0.00440384 0.622843
322 1 0.129697 0.00078256 0.620458
323 1 0.252793 0.00388848 0.621458
324 1 0.378251 -0.00396596 0.629135
325 1 0.503347 -0.00970469 0.627994
326 1 0.625765 -0.0060184 0.631814
327 1 0.754634 -0.000320054 0.617058
328 1 0.871646 -0.00484399 0.622797
329 1 1.00362 0.118204 0.630767
330 1 0.12889 0.128113 0.624261
331 1 0.252076 0.122827 0.632215
332 1 0.377217 0.12365 0.625715
333 1 0.498302 0.124574 0.621226
334 1 0.622403 0.123068 0.629158
335 1 0.745904 0.123297 0.627175
336 1 0.878306 0.120554 0.617024
337 1 0.994074 0.252725 0.626631
338 1 0.124016 0.255708 0.617335
339 1 0.24708 0.253237 0.619683
340 1 0.372162 0.254056 0.618997
341 1 0.497971 0.246445 0.621816
342 1 0.62139 0.249297 0.624221
343 1 0.75487 0.247464 0.622526
344 1 0.881288 0.241918 0.619645
345 1 0.993702 0.379914 0.628799
346 1 0.127717 0.383438 0.623895
347 1 0.25601 0.381094 0.619008
348 1 0.378817 0.382864 0.612053
349 1 0.497457 0.380657 0.62247
350 1 0.625511 0.366661 0.626274
351 1 0.756094 0.371421 0.619853
352 1 0.869841 0.376913 0.623105
353 1 1.00017 0.499729 0.625273
354 1 0.117822 0.511676 0.617271
355 1 0.247483 0.500831 0.629458
356 1 0.369647 0.499069 0.627272
357 1 0.49565 0.498643 0.626343
358 1 0.622864 0.495329 0.625274
359 1 0.748744 0.505465 0.618752
360 1 0.875946 0.49913 0.62255
361 1 0.997747 0.633678 0.623106
362 1 0.115744 0.632756 0.630697
363 1 0.244813 0.626335 0.626746
364 1 0.374366 0.623956 0.62905
365 1 0.498177 0.620056 0.630991
366 1 0.624828 0.617698 0.625733
367 1 0.751322 0.62676 0.622393
368 1 0.872745 0.622454 0.624765
369 1 0.992907 0.755646 0.628254
370 1 0.122232 0.754939 0.619386
371 1 0.244023 0.754407 0.619375
372 1 0.371335 0.753252 0.622214
373 1 0.489913 0.748859 0.62952
374 1 0.62368 0.748694 0.63087
375 1 0.743124 0.752071 0.632835
376 1 0.869733 0.756497 0.629591
377 1 1.00107 0.881059 0.624408
378 1 0.125101 0.880455 0.619257
379 1 0.245086 0.878737 0.620124
380 1 0.365996 0.876155 0.628122
381 1 0.494546 0.869887 0.629621
382 1 0.620616 0.865977 0.632079
383 1 0.751052 0.879067 0.617721
384 1 0.867694 0.874174 0.634508
385 1 0.999935 0.000476479 0.750466
386 1 0.128999 -0.00541162 0.74861
387 1 0.252279 -0.00397792 0.746215
388 1 0.376735 -0.00455942 0.754821
389 1 0.502511 -0.00249883 0.749733
390 1 0.62435 4.61218e-05 0.746363
391 1 0.742242 0.00741476 0.745402
392 1 0.876886 0.000739652 0.74611
393 1 0.00421641 0.11757 0.752084
394 1 0.126828 0.123101 0.749079
395 1 0.247455 0.124641 0.749578
396 1 0.372115 0.132017 0.746504
397 1 0.494331 0.127924 0.746705
398 1 0.614882 0.132491 0.747424
399 1 0.759161 0.125598 0.739519
400 1 0.877698 0.126249 0.749555
401 1 0.00291365 0.24408 0.752015
402 1 0.132086 0.253588 0.744725
403 1 0.249876 0.2488 0.749009
404 1 0.371098 0.252661 0.747988
405 1 0.498914 0.254614 0.748457
406 1 0.619281 0.241301 0.756795
407 1 0.750297 0.249793 0.749772
408 1 0.8773 0.250074 0.745378
409 1 0.991878 0.377801 0.751118
410 1 0.124414 0.383843 0.744734
411 1 0.257184 0.372908 0.74697
412 1 0.370246 0.382518 0.74786
413 1 0.498881 0.378205 0.751533
414 1 0.624977 0.363848 0.752811
415 1 0.751393 0.376869 0.743794
416 1 0.864202 0.373209 0.75723
417 1 0.00166365 0.509879 0.742901
418 1 0.122724 0.504687 0.749699
419 1 0.244149 0.503124 0.756485
420 1 0.371724 0.507882 0.747711
421 1 0.497539 0.497843 0.758178
422 1 0.623103 0.495076 0.750007
423 1 0.745583 0.511608 0.74493
424 1 0.874036 0.500292 0.751343
425 1 0.998078 0.621447 0.75384
426 1 0.117133 0.632928 0.755714
427 1 0.242044 0.629432 0.747412
428 1 0.36849 0.625052 0.75305
429 1 0.496595 0.622837 0.750372
430 1 0.61961 0.622414 0.751578
431 1 0.741734 0.630355 0.751435
432 1 0.86953 0.621718 0.753173
433 1 -0.00256328 0.749214 0.751384
434 1 0.123147 0.756335 0.741911
435 1 0.250561 0.749725 0.745839
436 1 0.372422 0.7501 0.753695
437 1 0.502663 0.74295 0.749603
438 1 0.620303 0.745208 0.761569
439 1 0.752768 0.750164 0.746695
440 1 0.870107 0.752018 0.75415
441 1 0.999868 0.874764 0.750109
442 1 0.123836 0.87148 0.747885
443 1 0.245225 0.872643 0.747818
444 1 0.373406 0.876821 0.756794
445 1 0.50225 0.871488 0.748167
446 1 0.624506 0.869344 0.755046
447 1 0.745956 0.883795 0.744994
448 1 0.881509 0.865972 0.752204
449 1 1.00707 -0.00158784 0.882955
450 1 0.135314 -0.0010252 0.867487
451 1 0.25227 -0.00214966 0.875163
452 1 0.367976 0.0091208 0.872143
453 1 0.501367 0.00824327 0.865837
454 1 0.624858 0.00390308 0.871602
455 1 0.755505 -0.000672738 0.876902
456 1 0.877487 -0.00156679 0.870514
457 1 0.0129438 0.118232 0.872955
458 1 0.127387 0.125067 0.868275
459 1 0.243422 0.127261 0.875769
460 1 0.367798 0.131242 0.872366
461 1 0.502684 0.126691 0.869198
462 1 0.636212 0.122103 0.867439
463 1 0.752337 0.124256 0.873823
464 1 0.883492 0.113821 0.872481
465 1 0.995566 0.250735 0.878496
466 1 0.12087 0.259419 0.870472
467 1 0.239555 0.257187 0.870625
468 1 0.367555 0.2544 0.870534
469 1 0.494477 0.244383 0.88272
470 1 0.618053 0.252016 0.880626
471 1 0.752382 0.252116 0.874006
472 1 0.874679 0.246281 0.874431
473 1 1.00348 0.376748 0.870321
474 1 0.127454 0.384548 0.87061
475 1 0.246732 0.384627 0.874673
476 1 0.368882 0.376869 0.879558
477 1 0.498394 0.371458 0.875921
478 1 0.625938 0.374308 0.872173
479 1 0.740543 0.381521 0.881192
480 1 0.872884 0.371321 0.878353
481 1 0.99981 0.500661 0.877023
482 1 0.117144 0.510935 0.88186
483 1 0.243927 0.505447 0.87873
484 1 0.377467 0.495278 0.881272
485 1 0.501553 0.500628 0.880137
486 1 0.620582 0.501436 0.876023
487 1 0.744174 0.505179 0.875274
488 1 0.882975 0.492599 0.875221
489 1 -0.00694235 0.628206 0.880452
490 1 0.123017 0.628707 0.874701
491 1 0.251712 0.62657 0.875764
492 1 0.370196 0.619089 0.884562
493 1 0.495878 0.626308 0.873826
494 1 0.619951 0.623144 0.877944
495 1 0.741638 0.627506 0.884748
496 1 0.871014 0.623526 0.872198
497 1 1.00132 0.754398 0.874765
498 1 0.121914 0.76123 0.872878
499 1 0.250748 0.742183 0.880151
500 1 0.375891 0.745643 0.878621
501 1 0.499476 0.743973 0.881604
502 1 0.622066 0.747849 0.876962
503 1 0.748103 0.749084 0.875711
504 1 0.869257 0.746919 0.870574
505 1 0.000486712 0.876976 0.879423
506 1 0.131574 0.876494 0.873764
507 1 0.248366 0.872689 0.874765
508 1 0.375029 0.867886 0.878672
509 1 0.50045 0.876344 0.875251