ITEM: TIMESTEP
0
ITEM: NUMBER OF ATOMS
512
ITEM: BOX BOUNDS xy xz yz pp pp pp
0.0000000000000000e+00 4.6228203219999997e+01 1.1557050800000001e+01
0.0000000000000000e+00 2.6689865579999999e+01 1.1557050800000001e+01
0.0000000000000000e+00 1.8872584490000001e+01 6.6724663900000003e+00
ITEM: ATOMS id type xs ys zs
1 1 0 0 0
2 1 0.125004 0 0
3 1 0.250007 0 0
4 1 0.375011 0 0
5 1 0.500014 0 0
6 1 0.625018 0 0
7 1 0.750022 0 0
8 1 0.875025 0 0
9 1 1 0.125004 0
10 1 0.125004 0.125004 0
11 1 0.250007 0.125004 0
12 1 0.375011 0.125004 0
13 1 0.500014 0.125004 0
14 1 0.625018 0.125004 0
15 1 0.750022 0.125004 0
16 1 0.875025 0.125004 0
17 1 1 0.250007 0
18 1 0.125004 0.250007 0
19 1 0.250007 0.250007 0
20 1 0.375011 0.250007 0
21 1 0.500014 0.250007 0
22 1 0.625018 0.250007 0
23 1 0.750022 0.250007 0
24 1 0.875025 0.250007 0
25 1 1 0.375011 0
26 1 0.125004 0.375011 0
27 1 0.250007 0.375011 0
28 1 0.375011 0.375011 0
29 1 0.500014 0.375011 0
30 1 0.625018 0.375011 0
31 1 0.750022 0.375011 0
32 1 0.875025 0.375011 0
33 1 5.51848e-10 0.500014 0
34 1 0.125004 0.500014 0
35 1 0.250007 0.500014 0
36 1 0.375011 0.500014 0
37 1 0.500014 0.500014 0
38 1 0.625018 0.500014 0
39 1 0.750022 0.500014 0
40 1 0.875025 0.500014 0
41 1 1 0.625018 0
42 1 0.125004 0.625018 0
43 1 0.250007 0.625018 0
44 1 0.375011 0.625018 0
45 1 0.500014 0.625018 0
46 1 0.625018 0.625018 0
47 1 0.750022 0.625018 0
48 1 0.875025 0.625018 0
49 1 1.78817e-10 0.750022 0
50 1 0.125004 0.750022 0
51 1 0.250007 0.750022 0
52 1 0.375011 0.750022 0
53 1 0.500014 0.750022 0
54 1 0.625018 0.750022 0
55 1 0.750022 0.750022 0
56 1 0.875025 0.750022 0
57 1 3.90225e-10 0.875025 0
58 1 0.125004 0.875025 0
59 1 0.250007 0.875025 0
60 1 0.375011 0.875025 0
61 1 0.500014 0.875025 0
62 1 0.625018 0.875025 0
63 1 0.750022 0.875025 0
64 1 0.875025 0.875025 0
65 1 1 1 0.125004
66 1 0.125004 1 0.125004
67 1 0.250007 1 0.125004
68 1 0.375011 1 0.125004
69 1 0.500014 1 0.125004
70 1 0.625018 1 0.125004
71 1 0.750022 1 0.125004
72 1 0.875025 1 0.125004
73 1 1 0.125004 0.125004
74 1 0.125004 0.125004 0.125004
75 1 0.250007 0.125004 0.125004
76 1 0.375011 0.125004 0.125004
77 1 0.500014 0.125004 0.125004
78 1 0.625018 0.125004 0.125004
79 1 0.750022 0.125004 0.125004
80 1 0.875025 0.125004 0.125004
81 1 1 0.250007 0.125004
82 1 0.125004 0.250007 0.125004
83 1 0.250007 0.250007 0.125004
84 1 0.375011 0.250007 0.125004
85 1 0.500014 0.250007 0.125004
86 1 0.625018 0.250007 0.125004
87 1 0.750022 0.250007 0.125004
88 1 0.875025 0.250007 0.125004
89 1 1 0.375011 0.125004
90 1 0.125004 0.375011 0.125004
91 1 0.250007 0.375011 0.125004
92 1 0.375011 0.375011 0.125004
93 1 0.500014 0.375011 0.125004
94 1 0.625018 0.375011 0.125004
95 1 0.750022 0.375011 0.125004
96 1 0.875025 0.375011 0.125004
97 1 1 0.500014 0.125004
98 1 0.125004 0.500014 0.125004
99 1 0.250007 0.500014 0.125004
100 1 0.375011 0.500014 0.125004
101 1 0.500014 0.500014 0.125004
102 1 0.625018 0.500014 0.125004
103 1 0.750022 0.500014 0.125004
104 1 0.875025 0.500014 0.125004
105 1 1 0.625018 0.125004
106 1 0.125004 0.625018 0.125004
107 1 0.250007 0.625018 0.125004
108 1 0.375011 0.625018 0.125004
109 1 0.500014 0.625018 0.125004
110 1 0.625018 0.625018 0.125004
111 1 0.750022 0.625018 0.125004
112 1 0.875025 0.625018 0.125004
113 1 1 0.750022 0.125004
114 1 0.125004 0.750022 0.125004
115 1 0.250007 0.750022 0.125004
116 1 0.375011 0.750022 0.125004
117 1 0.500014 0.750022 0.125004
118 1 0.625018 0.750022 0.125004
119 1 0.750022 0.750022 0.125004
120 1 0.875025 0.750022 0.125004
121 1 1 0.875025 0.125004
122 1 0.125004 0.875025 0.125004
123 1 0.250007 0.875025 0.125004
124 1 0.375011 0.875025 0.125004
125 1 0.500014 0.875025 0.125004
126 1 0.625018 0.875025 0.125004
127 1 0.750022 0.875025 0.125004
128 1 0.875025 0.875025 0.125004
129 1 1 1 0.250007
130 1 0.125004 1 0.250007
131 1 0.250007 1 0.250007
132 1 0.375011 1 0.250007
133 1 0.500014 1 0.250007
134 1 0.625018 1 0.250007
135 1 0.750022 1 0.250007
136 1 0.875025 1 0.250007
137 1 1 0.125004 0.250007
138 1 0.125004 0.125004 0.250007
139 1 0.250007 0.125004 0.250007
140 1 0.375011 0.125004 0.250007
141 1 0.500014 0.125004 0.250007
142 1 0.625018 0.125004 0.250007
143 1 0.750022 0.125004 0.250007
144 1 0.875025 0.125004 0.250007
145 1 1 0.250007 0.250007
146 1 0.125004 0.250007 0.250007
147 1 0.250007 0.250007 0.250007
148 1 0.375011 0.250007 0.250007
149 1 0.500014 0.250007 0.250007
150 1 0.625018 0.250007 0.250007
151 1 0.750022 0.250007 0.250007
152 1 0.875025 0.250007 0.250007
153 1 1 0.375011 0.250007
154 1 0.125004 0.375011 0.250007
155 1 0.250007 0.375011 0.250007
156 1 0.375011 0.375011 0.250007
157 1 0.500014 0.375011 0.250007
158 1 0.625018 0.375011 0.250007
159 1 0.750022 0.375011 0.250007
160 1 0.875025 0.375011 0.250007
161 1 1 0.500014 0.250007
162 1 0.125004 0.500014 0.250007
163 1 0.250007 0.500014 0.250007
164 1 0.375011 0.500014 0.250007
165 1 0.500014 0.500014 0.250007
166 1 0.625018 0.500014 0.250007
167 1 0.750022 0.500014 0.250007
168 1 0.875025 0.500014 0.250007
169 1 1 0.625018 0.250007
170 1 0.125004 0.625018 0.250007
171 1 0.250007 0.625018 0.250007
172 1 0.375011 0.625018 0.250007
173 1 0.500014 0.625018 0.250007
174 1 0.625018 0.625018 0.250007
175 1 0.750022 0.625018 0.250007
176 1 0.875025 0.625018 0.250007
177 1 1 0.750022 0.250007
178 1 0.125004 0.750022 0.250007
179 1 0.250007 0.750022 0.250007
180 1 0.375011 0.750022 0.250007
181 1 0.500014 0.750022 0.250007
182 1 0.625018 0.750022 0.250007
183 1 0.750022 0.750022 0.250007
184 1 0.875025 0.750022 0.250007
185 1 1 0.875025 0.250007
186 1 0.125004 0.875025 0.250007
187 1 0.250007 0.875025 0.250007
188 1 0.375011 0.875025 0.250007
189 1 0.500014 0.875025 0.250007
190 1 0.625018 0.875025 0.250007
191 1 0.750022 0.875025 0.250007
192 1 0.875025 0.875025 0.250007
193 1 1 1 0.375011
194 1 0.125004 1 0.375011
195 1 0.250007 1 0.375011
196 1 0.375011 1 0.375011
197 1 0.500014 1 0.375011
198 1 0.625018 1 0.375011
199 1 0.750022 1 0.375011
200 1 0.875025 1 0.375011
201 1 1 0.125004 0.375011
202 1 0.125004 0.125004 0.375011
203 1 0.250007 0.125004 0.375011
204 1 0.375011 0.125004 0.375011
205 1 0.500014 0.125004 0.375011
206 1 0.625018 0.125004 0.375011
207 1 0.750022 0.125004 0.375011
208 1 0.875025 0.125004 0.375011
209 1 1 0.250007 0.375011
210 1 0.125004 0.250007 0.375011
211 1 0.250007 0.250007 0.375011
212 1 0.375011 0.250007 0.375011
213 1 0.500014 0.250007 0.375011
214 1 0.625018 0.250007 0.375011
215 1 0.750022 0.250007 0.375011
216 1 0.875025 0.250007 0.375011
217 1 1 0.375011 0.375011
218 1 0.125004 0.375011 0.375011
219 1 0.250007 0.375011 0.375011
220 1 0.375011 0.375011 0.375011
221 1 0.500014 0.375011 0.375011
222 1 0.625018 0.375011 0.375011
223 1 0.750022 0.375011 0.375011
224 1 0.875025 0.375011 0.375011
225 1 1 0.500014 0.375011
226 1 0.125004 0.500014 0.375011
227 1 0.250007 0.500014 0.375011
228 1 0.375011 0.500014 0.375011
229 1 0.500014 0.500014 0.375011
230 1 0.625018 0.500014 0.375011
231 1 0.750022 0.500014 0.375011
232 1 0.875025 0.500014 0.375011
233 1 1 0.625018 0.375011
234 1 0.125004 0.625018 0.375011
235 1 0.250007 0.625018 0.375011
236 1 0.375011 0.625018 0.375011
237 1 0.500014 0.625018 0.375011
238 1 0.625018 0.625018 0.375011
239 1 0.750022 0.625018 0.375011
240 1 0.875025 0.625018 0.375011
241 1 1 0.750022 0.375011
242 1 0.125004 0.750022 0.375011
243 1 0.250007 0.750022 0.375011
244 1 0.375011 0.750022 0.375011
245 1 0.500014 0.750022 0.375011
246 1 0.625018 0.750022 0.375011
247 1 0.750022 0.750022 0.375011
248 1 0.875025 0.750022 0.375011
249 1 1 0.875025 0.375011
250 1 0.125004 0.875025 0.375011
251 1 0.250007 0.875025 0.375011
252 1 0.375011 0.875025 0.375011
253 1 0.500014 0.875025 0.375011
254 1 0.625018 0.875025 0.375011
255 1 0.750022 0.875025 0.375011
256 1 0.875025 0.875025 0.375011
257 1 1 1 0.500014
258 1 0.125004 1 0.500014
259 1 0.250007 1 0.500014
260 1 0.375011 1 0.500014
261 1 0.500014 1 0.500014
262 1 0.625018 1 0.500014
263 1 0.750022 1 0.500014
264 1 0.875025 1 0.500014
265 1 1 0.125004 0.500014
266 1 0.125004 0.125004 0.500014
267 1 0.250007 0.125004 0.500014
268 1 0.375011 0.125004 0.500014
269 1 0.500014 0.125004 0.500014
270 1 0.625018 0.125004 0.500014
271 1 0.750022 0.125004 0.500014
272 1 0.875025 0.125004 0.500014
273 1 1 0.250007 0.500014
274 1 0.125004 0.250007 0.500014
275 1 0.250007 0.250007 0.500014
276 1 0.375011 0.250007 0.500014
277 1 0.500014 0.250007 0.500014
278 1 0.625018 0.250007 0.500014
279 1 0.750022 0.250007 0.500014
280 1 0.875025 0.250007 0.500014
281 1 1 0.375011 0.500014
282 1 0.125004 0.375011 0.500014
283 1 0.250007 0.375011 0.500014
284 1 0.375011 0.375011 0.500014
285 1 0.500014 0.375011 0.500014
286 1 0.625018 0.375011 0.500014
287 1 0.750022 0.375011 0.500014
288 1 0.875025 0.375011 0.500014
289 1 1 0.500014 0.500014
290 1 0.125004 0.500014 0.500014
291 1 0.250007 0.500014 0.500014
292 1 0.375011 0.500014 0.500014
293 1 0.500014 0.500014 0.500014
294 1 0.625018 0.500014 0.500014
295 1 0.750022 0.500014 0.500014
296 1 0.875025 0.500014 0.500014
297 1 1 0.625018 0.500014
298 1 0.125004 0.625018 0.500014
299 1 0.250007 0.625018 0.500014
300 1 0.375011 0.625018 0.500014
301 1 0.500014 0.625018 0.500014
302 1 0.625018 0.625018 0.500014
303 1 0.750022 0.625018 0.500014
304 1 0.875025 0.625018 0.500014
305 1 1 0.750022 0.500014
306 1 0.125004 0.750022 0.500014
307 1 0.250007 0.750022 0.500014
308 1 0.375011 0.750022 0.500014
309 1 0.500014 0.750022 0.500014
310 1 0.625018 0.750022 0.500014
311 1 0.750022 0.750022 0.500014
312 1 0.875025 0.750022 0.500014
313 1 1 0.875025 0.500014
314 1 0.125004 0.875025 0.500014
315 1 0.250007 0.875025 0.500014
316 1 0.375011 0.875025 0.500014
317 1 0.500014 0.875025 0.500014
318 1 0.625018 0.875025 0.500014
319 1 0.750022 0.875025 0.500014
320 1 0.875025 0.875025 0.500014
321 1 1 1 0.625018
322 1 0.125004 1 0.625018
323 1 0.250007 1 0.625018
324 1 0.375011 1 0.625018
325 1 0.500014 1 0.625018
326 1 0.625018 1 0.625018
327 1 0.750022 1 0.625018
328 1 0.875025 1 0.625018
329 1 1 0.125004 0.625018
330 1 0.125004 0.125004 0.625018
331 1 0.250007 0.125004 0.625018
332 1 0.375011 0.125004 0.625018
333 1 0.500014 0.125004 0.625018
334 1 0.625018 0.125004 0.625018
335 1 0.750022 0.125004 0.625018
336 1 0.875025 0.125004 0.625018
337 1 1 0.250007 0.625018
338 1 0.125004 0.250007 0.625018
339 1 0.250007 0.250007 0.625018
340 1 0.375011 0.250007 0.625018
341 1 0.500014 0.250007 0.625018
342 1 0.625018 0.250007 0.625018
343 1 0.750022 0.250007 0.625018
344 1 0.875025 0.250007 0.625018
345 1 1 0.375011 0.625018
346 1 0.125004 0.375011 0.625018
347 1 0.250007 0.375011 0.625018
348 1 0.375011 0.375011 0.625018
349 1 0.500014 0.375011 0.625018
350 1 0.625018 0.375011 0.625018
351 1 0.750022 0.375011 0.625018
352 1 0.875025 0.375011 0.625018
353 1 1 0.500014 0.625018
354 1 0.125004 0.500014 0.625018
355 1 0.250007 0.500014 0.625018
356 1 0.375011 0.500014 0.625018
357 1 0.500014 0.500014 0.625018
358 1 0.625018 0.500014 0.625018
359 1 0.750022 0.500014 0.625018
360 1 0.875025 0.500014 0.625018
361 1 1 0.625018 0.625018
362 1 0.125004 0.625018 0.625018
363 1 0.250007 0.625018 0.625018
364 1 0.375011 0.625018 0.625018
365 1 0.500014 0.625018 0.625018
366 1 0.625018 0.625018 0.625018
367 1 0.750022 0.625018 0.625018
368 1 0.875025 0.625018 0.625018
369 1 1 0.750022 0.625018
370 1 0.125004 0.750022 0.625018
371 1 0.250007 0.750022 0.625018
372 1 0.375011 0.750022 0.625018
373 1 0.500014 0.750022 0.625018
374 1 0.625018 0.750022 0.625018
375 1 0.750022 0.750022 0.625018
376 1 0.875025 0.750022 0.625018
377 1 1 0.875025 0.625018
378 1 0.125004 0.875025 0.625018
379 1 0.250007 0.875025 0.625018
380 1 0.375011 0.875025 0.625018
381 1 0.500014 0.875025 0.625018
382 1 0.625018 0.875025 0.625018
383 1 0.750022 0.875025 0.625018
384 1 0.875025 0.875025 0.625018
385 1 1 1 0.750022
386 1 0.125004 1 0.750022
387 1 0.250007 1 0.750022
388 1 0.375011 1 0.750022
389 1 0.500014 1 0.750022
390 1 0.625018 1 0.750022
391 1 0.750022 1 0.750022
392 1 0.875025 1 0.750022
393 1 1 0.125004 0.750022
394 1 0.125004 0.125004 0.750022
395 1 0.250007 0.125004 0.750022
396 1 0.375011 0.125004 0.750022
397 1 0.500014 0.125004 0.750022
398 1 0.625018 0.125004 0.750022
399 1 0.750022 0.125004 0.750022
400 1 0.875025 0.125004 0.750022
401 1 1 0.250007 0.750022
402 1 0.125004 0.250007 0.750022
403 1 0.250007 0.250007 0.750022
404 1 0.375011 0.250007 0.750022
405 1 0.500014 0.250007 0.750022
406 1 0.625018 0.250007 0.750022
407 1 0.750022 0.250007 0.750022
408 1 0.875025 0.250007 0.750022
409 1 1 0.375011 0.750022
410 1 0.125004 0.375011 0.750022
411 1 0.250007 0.375011 0.750022
412 1 0.375011 0.375011 0.750022
413 1 0.500014 0.375011 0.750022
414 1 0.625018 0.375011 0.750022
415 1 0.750022 0.375011 0.750022
416 1 0.875025 0.375011 0.750022
417 1 1 0.500014 0.750022
418 1 0.125004 0.500014 0.750022
419 1 0.250007 0.500014 0.750022
420 1 0.375011 0.500014 0.750022
421 1 0.500014 0.500014 0.750022
422 1 0.625018 0.500014 0.750022
423 1 0.750022 0.500014 0.750022
424 1 0.875025 0.500014 0.750022
425 1 1 0.625018 0.750022
426 1 0.125004 0.625018 0.750022
427 1 0.250007 0.625018 0.750022
428 1 0.375011 0.625018 0.750022
429 1 0.500014 0.625018 0.750022
430 1 0.625018 0.625018 0.750022
431 1 0.750022 0.625018 0.750022
432 1 0.875025 0.625018 0.750022
433 1 1 0.750022 0.750022
434 1 0.125004 0.750022 0.750022
435 1 0.250007 0.750022 0.750022
436 1 0.375011 0.750022 0.750022
437 1 0.500014 0.750022 0.750022
438 1 0.625018 0.750022 0.750022
439 1 0.750022 0.750022 0.750022
440 1 0.875025 0.750022 0.750022
441 1 1 0.875025 0.750022
442 1 0.125004 0.875025 0.750022
443 1 0.250007 0.875025 0.750022
444 1 0.375011 0.875025 0.750022
445 1 0.500014 0.875025 0.750022
446 1 0.625018 0.875025 0.750022
447 1 0.750022 0.875025 0.750022
448 1 0.875025 0.875025 0.750022
449 1 1 1 0.875025
450 1 0.125004 1 0.875025
451 1 0.250007 1 0.875025
452 1 0.375011 1 0.875025
453 1 0.500014 1 0.875025
454 1 0.625018 1 0.875025
455 1 0.750022 1 0.875025
456 1 0.875025 1 0.875025
457 1 1 0.125004 0.875025
458 1 0.125004 0.125004 0.875025
459 1 0.250007 0.125004 0.875025
460 1 0.375011 0.125004 0.875025
461 1 0.500014 0.125004 0.875025
462 1 0.625018 0.125004 0.875025
463 1 0.750022 0.125004 0.875025
464 1 0.875025 0.125004 0.875025
465 1 1 0.250007 0.875025
466 1 0.125004 0.250007 0.875025
467 1 0.250007 0.250007 0.875025
468 1 0.375011 0.250007 0.875025
469 1 0.500014 0.250007 0.875025
470 1 0.625018 0.250007 0.875025
471 1 0.750022 0.250007 0.875025
472 1 0.875025 0.250007 0.875025
473 1 1 0.375011 0.875025
474 1 0.125004 0.375011 0.875025
475 1 0.250007 0.375011 0.875025
476 1 0.375011 0.375011 0.875025
477 1 0.500014 0.375011 0.875025
478 1 0.625018 0.375011 0.875025
479 1 0.750022 0.375011 0.875025
480 1 0.875025 0.375011 0.875025
481 1 1 0.500014 0.875025
482 1 0.125004 0.500014 0.875025
483 1 0.250007 0.500014 0.875025
484 1 0.375011 0.500014 0.875025
485 1 0.500014 0.500014 0.875025
486 1 0.625018 0.500014 0.875025
487 1 0.750022 0.500014 0.875025
488 1 0.875025 0.500014 0.875025
489 1 1 0.625018 0.875025
490 1 0.125004 0.625018 0.875025
491 1 0.250007 0.625018 0.875025
492 1 0.375011 0.625018 0.875025
493 1 0.500014 0.625018 0.875025
494 1 0.625018 0.625018 0.875025
495 1 0.750022 0.625018 0.875025
496 1 0.875025 0.625018 0.875025
497 1 1 0.750022 0.875025
498 1 0.125004 0.750022 0.875025
499 1 0.250007 0.750022 0.875025
500 1 0.375011 0.750022 0.875025
501 1 0.500014 0.750022 0.875025
502 1 0.625018 0.750022 0.875025
503 1 0.750022 0.750022 0.875025
504 1 0.875025 0.750022 0.875025
505 1 1 0.875025 0.875025
506 1 0.125004 0.875025 0.875025
507 1 0.250007 0.875025 0.875025
508 1 0.375011 0.875025 0.875025
509 1 0.500014 0.875025 0.875025
510 1 0.625018 0.875025 0.875025
511 1 0.750022 0.875025 0.875025
512 1 0.875025 0.875025 0.875025
ITEM: TIMESTEP
50000
ITEM: NUMBER OF ATOMS
512
ITEM: BOX BOUNDS xy xz yz pp pp pp
-3.6223946509947424e-02 4.6336875059466841e+01 1.1593274746478563e+01
-3.1370857905331562e-02 2.6742150343155103e+01 1.1593274746478563e+01
-2.9576727761753574e-02 1.8902161217761915e+01 6.6933802952492485e+00
ITEM: ATOMS id type xs ys zs
1 1 0.00957233 -0.00566756 0.000280948
2 1 0.129542 -0.000452642 -0.00116931
3 1 0.253764 -0.00516398 0.00416363
4 1 0.379905 -0.000583619 -0.00314569
5 1 0.499421 0.00155996 -0.00147372
6 1 0.62683 0.000232638 0.00428948
7 1 0.752887 -0.00216107 0.0116204
8 1 0.882398 -0.00268322 -0.00277402
9 1 1.00345 0.119854 -0.00203468
10 1 0.126621 0.120632 0.00215445
11 1 0.253291 0.12417 -0.00138303
12 1 0.374182 0.125963 -1.60456e-05
13 1 0.49618 0.124846 0.0127861
14 1 0.624068 0.124155 0.00872754
15 1 0.754492 0.123713 0.00339461
16 1 0.876319 0.12415 -0.00116302
17 1 1.00961 0.247825 -0.00542108
18 1 0.121246 0.25022 0.00504777
19 1 0.250161 0.248252 0.000910687
20 1 0.372786 0.253161 -0.000909559
21 1 0.500756 0.252246 -0.00105113
22 1 0.632144 0.248465 -0.00867326
23 1 0.755584 0.249218 -0.0051534
24 1 0.876242 0.247509 0.00263569
25 1 0.996254 0.376008 -0.00201373
26 1 0.125745 0.373545 -0.00204278
27 1 0.258655 0.371065 -0.00386368
28 1 0.381433 0.373596 -0.00343241
29 1 0.49497 0.378133 -0.00229347
30 1 0.631225 0.36668 -0.00199612
31 1 0.744641 0.381312 -0.000322791
32 1 0.873997 0.371758 -0.000436495
33 1 0.000725907 0.499938 -0.00130519
34 1 0.120632 0.494916 0.00278892
35 1 0.24933 0.503021 -0.00387868
36 1 0.378702 0.502261 0.00364814
37 1 0.500705 0.501407 0.00291181
38 1 0.630947 0.499269 0.000398798
39 1 0.748901 0.501098 -0.00100845
40 1 0.879892 0.505152 -0.00563285
41 1 1.0032 0.624372 0.00132211
42 1 0.131953 0.62831 -0.000448877
43 1 0.254918 0.62431 -0.00112719
44 1 0.37641 0.629609 -0.00271782
45 1 0.494613 0.625398 0.00282924
46 1 0.626036 0.62142 0.00606535
47 1 0.755396 0.618046 0.00336308
48 1 0.879728 0.629606 -0.00481541
49 1 0.00629628 0.752718 -0.00278371
50 1 0.119623 0.755156 -0.00218458
51 1 0.249075 0.751675 0.000800814
52 1 0.372773 0.756353 -0.0016661
53 1 0.507233 0.748134 -0.00592808
54 1 0.627965 0.750798 0.00221489
55 1 0.74818 0.749272 -0.00267829
56 1 0.88157 0.748551 0.00133726
57 1 0.00732948 0.875491 -0.000285733
58 1 0.123667 0.868507 0.00922598
59 1 0.250297 0.87567 0.0044465
60 1 0.380973 0.874624 0.00178129
61 1 0.496672 0.877023 0.000866522
62 1 0.625822 0.868327 0.00777929
63 1 0.756281 0.872628 -0.00498627
64 1 0.87724 0.878464 0.000325483
65 1 1.00189 0.999138 0.127993
66 1 0.129719 1.0016 0.118693
67 1 0.260105 1.0034 0.121642
68 1 0.372434 0.994152 0.132494
69 1 0.49424 1.00514 0.13449
70 1 0.634505 0.993986 0.123624
71 1 0.756454 0.992147 0.128026
72 1 0.878409 0.999606 0.119705
73 1 0.994557 0.135294 0.123587
74 1 0.121191 0.12208 0.129847
75 1 0.246577 0.127209 0.123714
76 1 0.369399 0.127855 0.130617
77 1 0.499791 0.122773 0.123877
78 1 0.626763 0.119747 0.124243
79 1 0.754955 0.119389 0.129723
80 1 0.877564 0.117757 0.124344
81 1 1.001 0.251533 0.124528
82 1 0.128635 0.248603 0.124169
83 1 0.249295 0.244981 0.126854
84 1 0.372376 0.249828 0.128952
85 1 0.503329 0.247813 0.119641
86 1 0.619742 0.246463 0.127847
87 1 0.752261 0.250338 0.125663
88 1 0.867536 0.245841 0.128831
89 1 1.01249 0.369593 0.126295
90 1 0.126958 0.374376 0.125699
91 1 0.243195 0.385056 0.124495
92 1 0.370007 0.378251 0.121594
93 1 0.49387 0.373642 0.12692
94 1 0.62185 0.372097 0.12241
95 1 0.754488 0.369915 0.122013
96 1 0.873445 0.380084 0.123802
97 1 1.0033 0.493663 0.123592
98 1 0.117617 0.501779 0.124898
99 1 0.249237 0.50544 0.118109
100 1 0.371577 0.5074 0.125155
101 1 0.50405 0.499042 0.115001
102 1 0.631909 0.496357 0.125674
103 1 0.75027 0.499742 0.124408
104 1 0.878229 0.502073 0.128859
105 1 0.998614 0.62886 0.117826
106 1 0.119209 0.633559 0.118393
107 1 0.250877 0.629988 0.114181
108 1 0.374219 0.630833 0.12753
109 1 0.506894 0.619844 0.12
110 1 0.625777 0.621028 0.130127
111 1 0.75811 0.624525 0.114608
112 1 0.877288 0.623796 0.125091
113 1 0.991602 0.750162 0.124516
114 1 0.123662 0.748008 0.12698
115 1 0.2463 0.749804 0.127599
116 1 0.378081 0.747822 0.120419
117 1 0.499616 0.749977 0.123496
118 1 0.622794 0.7443 0.129192
119 1 0.748465 0.749776 0.127059
120 1 0.877673 0.750099 0.121464
121 1 1.00217 0.873073 0.123881
122 1 0.129566 0.88094 0.121381
123 1 0.259985 0.866992 0.126023
124 1 0.380458 0.866488 0.127785
125 1 0.498682 0.871853 0.128217
126 1 0.623093 0.879188 0.12279
127 1 0.751665 0.870035 0.122429
128 1 0.877986 0.875973 0.126788
129 1 1.00836 0.994347 0.246525
130 1 0.130264 1.00156 0.242013
131 1 0.242712 1.00974 0.250819
132 1 0.37019 1.00686 0.249724
133 1 0.498637 0.994302 0.257679
134 1 0.629492 0.996666 0.253429
135 1 0.74854 1.00328 0.249148
136 1 0.875217 0.995359 0.24789
137 1 0.998495 0.112087 0.2532
138 1 0.118972 0.130528 0.244662
139 1 0.24983 0.13249 0.248211
140 1 0.371901 0.131064 0.25369
141 1 0.501508 0.120368 0.254138
142 1 0.624248 0.115652 0.250636
143 1 0.756196 0.116724 0.249636
144 1 0.87849 0.114131 0.249469
145 1 1.00342 0.253923 0.24036
146 1 0.121846 0.255023 0.247825
147 1 0.245712 0.257099 0.249763
148 1 0.378887 0.249047 0.257701
149 1 0.506243 0.242645 0.251482
150 1 0.628302 0.243836 0.251
151 1 0.753987 0.239812 0.25024
152 1 0.880833 0.237487 0.25337
153 1 1.002 0.379739 0.246709
154 1 0.124099 0.379257 0.244733
155 1 0.246254 0.383489 0.251365
156 1 0.373566 0.38566 0.244317
157 1 0.503722 0.368157 0.24546
158 1 0.628088 0.364596 0.248031
159 1 0.754173 0.371704 0.252908
160 1 0.885421 0.371618 0.251241
161 1 0.992556 0.506419 0.242343
162 1 0.119654 0.500824 0.244635
163 1 0.251329 0.503446 0.251198
164 1 0.374096 0.503206 0.247229
165 1 0.500618 0.486265 0.255674
166 1 0.628487 0.494935 0.245076
167 1 0.739565 0.499024 0.260113
168 1 0.868108 0.494685 0.259361
169 1 0.996832 0.623712 0.25116
170 1 0.131883 0.623672 0.244943
171 1 0.245628 0.628535 0.254336
172 1 0.384877 0.611283 0.253073
173 1 0.500064 0.628197 0.244388
174 1 0.627332 0.621012 0.247851
175 1 0.748829 0.629848 0.242
176 1 0.876664 0.624449 0.248575
177 1 0.999582 0.751623 0.241204
178 1 0.126864 0.749417 0.249802
179 1 0.255841 0.749041 0.256276
180 1 0.384313 0.744176 0.253168
181 1 0.507241 0.754938 0.251022
182 1 0.627346 0.751818 0.243769
183 1 0.750945 0.749621 0.250993
184 1 0.871669 0.75102 0.253559
185 1 1.00538 0.870107 0.251667
186 1 0.128918 0.872165 0.247837
187 1 0.251266 0.871824 0.258534
188 1 0.376897 0.879749 0.250855
189 1 0.49606 0.877073 0.252671
190 1 0.6202 0.875695 0.254404
191 1 0.746278 0.873845 0.251121
192 1 0.869459 0.867281 0.256589
193 1 1.00608 1.00056 0.367807
194 1 0.124519 0.999884 0.371624
195 1 0.255087 1.00612 0.370913
196 1 0.371235 1.00978 0.37452
197 1 0.503449 0.997152 0.380201
198 1 0.622874 0.995032 0.380141
199 1 0.746939 0.994 0.382132
200 1 0.877026 1.00522 0.370316
201 1 0.999512 0.131516 0.372034
202 1 0.118847 0.126446 0.372297
203 1 0.24138 0.131552 0.375295
204 1 0.382549 0.125793 0.377043
205 1 0.500943 0.121946 0.381864
206 1 0.629047 0.123329 0.377808
207 1 0.752173 0.12352 0.374434
208 1 0.883207 0.117063 0.377447
209 1 0.993527 0.248364 0.381512
210 1 0.119997 0.260907 0.374665
211 1 0.257561 0.251862 0.375368
212 1 0.390102 0.244157 0.374985
213 1 0.501773 0.251686 0.37478
214 1 0.63057 0.24811 0.367783
215 1 0.749365 0.253845 0.37253
216 1 0.871713 0.255966 0.369455
217 1 0.992961 0.381195 0.374526
218 1 0.13551 0.379391 0.365792
219 1 0.249255 0.384099 0.373285
220 1 0.376272 0.375689 0.368934
221 1 0.503401 0.371256 0.37374
222 1 0.616358 0.378077 0.381218
223 1 0.743491 0.37541 0.381458
224 1 0.867213 0.374828 0.380369
225 1 1.002 0.497927 0.37073
226 1 0.122693 0.500239 0.370081
227 1 0.250899 0.504967 0.371316
228 1 0.376113 0.491678 0.375919
229 1 0.49441 0.506922 0.370392
230 1 0.609567 0.504729 0.380995
231 1 0.738243 0.504369 0.377528
232 1 0.874194 0.49339 0.378573
233 1 0.994306 0.632703 0.373412
234 1 0.119026 0.629107 0.375777
235 1 0.243949 0.624928 0.379203
236 1 0.377507 0.616074 0.378906
237 1 0.500937 0.627149 0.368973
238 1 0.62028 0.628908 0.37107
239 1 0.748271 0.627734 0.372087
240 1 0.868426 0.623063 0.370652
241 1 1.00182 0.745932 0.367804
242 1 0.118168 0.756754 0.374528
243 1 0.246943 0.749939 0.376632
244 1 0.371506 0.757978 0.373947
245 1 0.506493 0.748605 0.375947
246 1 0.620975 0.74712 0.377763
247 1 0.744496 0.741624 0.38268
248 1 0.867594 0.744281 0.380597
249 1 0.999107 0.873884 0.371219
250 1 0.122928 0.882843 0.372243
251 1 0.249285 0.87867 0.378669
252 1 0.371232 0.879092 0.375887
253 1 0.491628 0.878783 0.385605
254 1 0.621654 0.870957 0.383416
255 1 0.746905 0.876642 0.373675
256 1 0.874804 0.873331 0.37531
257 1 0.999719 1.00268 0.499842
258 1 0.118448 1.00704 0.498926
259 1 0.250637 0.995937 0.505518
260 1 0.365295 1.00842 0.499232
261 1 0.491897 0.998481 0.510825
262 1 0.624125 1.00434 0.497995
263 1 0.752886 1.0026 0.493673
264 1 0.877183 1.00134 0.490537
265 1 0.998753 0.129805 0.497281
266 1 0.125677 0.12547 0.497224
267 1 0.244453 0.126146 0.503836
268 1 0.371487 0.131644 0.499778
269 1 0.49152 0.133953 0.495835
270 1 0.621633 0.129318 0.503578
271 1 0.756902 0.127393 0.498531
272 1 0.884402 0.125726 0.495604
273 1 0.99501 0.250779 0.50037
274 1 0.127539 0.248923 0.50343
275 1 0.24913 0.259181 0.496105
276 1 0.374343 0.24936 0.497966
277 1 0.505541 0.252034 0.497182
278 1 0.625135 0.250645 0.498164
279 1 0.746121 0.25301 0.496345
280 1 0.866484 0.252051 0.502811
281 1 0.998537 0.373086 0.504971
282 1 0.126733 0.366246 0.501327
283 1 0.249951 0.376195 0.499251
284 1 0.378857 0.374264 0.497778
285 1 0.497801 0.373375 0.504677
286 1 0.619779 0.372396 0.502968
287 1 0.739696 0.383383 0.500231
288 1 0.871976 0.375375 0.499387
289 1 0.990739 0.501355 0.500254
290 1 0.118531 0.504115 0.494775
291 1 0.24309 0.504414 0.494492
292 1 0.374157 0.491358 0.503537
293 1 0.493272 0.503463 0.495272
294 1 0.6185 0.495745 0.502679
295 1 0.750905 0.497811 0.494901
296 1 0.875094 0.496617 0.498551
297 1 1.00715 0.619019 0.494029
298 1 0.118878 0.626179 0.500276
299 1 0.251691 0.621964 0.499357
300 1 0.372838 0.627815 0.497683
301 1 0.495404 0.625517 0.503336
302 1 0.623597 0.619025 0.50093
303 1 0.752393 0.624518 0.498023
304 1 0.874366 0.622767 0.495714
305 1 0.992686 0.747943 0.499581
306 1 0.113182 0.754069 0.505655
307 1 0.24711 0.753542 0.500437
308 1 0.370638 0.752437 0.498816
309 1 0.500179 0.752355 0.494514
310 1 0.624856 0.742162 0.510457
311 1 0.745973 0.749804 0.500787
312 1 0.865208 0.753517 0.500454
313 1 0.989172 0.876932 0.498988
314 1 0.115601 0.881025 0.498962
315 1 0.242544 0.886935 0.497293
316 1 0.373073 0.88003 0.501083
317 1 0.49822 0.865537 0.506773
318 1 0.616424 0.877104 0.503296
319 1 0.738764 0.876149 0.500821
320 1 0.868004 0.882368 0.492079
321 1 0.998429 1.01242 0.623949
322 1 0.121803 1.01217 0.61781
323 1 0.249014 0.998158 0.628897
324 1 0.370639 1.0039 0.625994
325 1 0.499743 1.00168 0.628834
326 1 0.633618 0.997098 0.618236
327 1 0.758393 1.00039 0.618625
328 1 0.879955 1.00409 0.618406
329 1 0.999271 0.138349 0.622378
330 1 0.129029 0.122738 0.632991
331 1 0.253183 0.135135 0.619336
332 1 0.37031 0.132242 0.626155
333 1 0.500845 0.128461 0.622703
334 1 0.631514 0.120003 0.626028
335 1 0.745593 0.129327 0.624873
336 1 0.867491 0.123175 0.631974
337 1 0.994264 0.256151 0.623149
338 1 0.125454 0.253959 0.628443
339 1 0.254395 0.254774 0.625257
340 1 0.37492 0.255851 0.624226
341 1 0.506014 0.2416 0.629697
342 1 0.618509 0.253567 0.624841
343 1 0.742958 0.249953 0.626584
344 1 0.866464 0.244777 0.631576
345 1 0.994266 0.377535 0.626503
346 1 0.125436 0.382112 0.615896
347 1 0.252038 0.37484 0.626313
348 1 0.368198 0.37715 0.625092
349 1 0.497081 0.38241 0.624783
350 1 0.632324 0.369816 0.625426
351 1 0.752395 0.375942 0.619342
352 1 0.873142 0.37359 0.622251
353 1 0.996254 0.501155 0.624323
354 1 0.116673 0.502412 0.62568
355 1 0.251514 0.50035 0.624527
356 1 0.376422 0.500237 0.627462
357 1 0.501051 0.501001 0.62466
358 1 0.630711 0.49592 0.622536
359 1 0.75484 0.495411 0.626866
360 1 0.872285 0.502103 0.623417
361 1 0.989546 0.626922 0.626749
362 1 0.121974 0.625788 0.621505
363 1 0.243577 0.625275 0.628462
364 1 0.370743 0.628609 0.62522
365 1 0.496795 0.630078 0.626796
366 1 0.635598 0.616406 0.626664
367 1 0.752912 0.625017 0.62489
368 1 0.869613 0.632645 0.618866
369 1 0.997804 0.747735 0.627833
370 1 0.120916 0.750313 0.624324
371 1 0.249408 0.7547 0.621995
372 1 0.374528 0.759908 0.621853
373 1 0.488957 0.749536 0.636549
374 1 0.621886 0.754109 0.628908
375 1 0.735206 0.758462 0.625957
376 1 0.871828 0.759234 0.625712
377 1 0.995918 0.874155 0.624699
378 1 0.123507 0.876317 0.62722
379 1 0.248829 0.873811 0.630881
380 1 0.380838 0.882251 0.616721
381 1 0.497273 0.876406 0.631418
382 1 0.619298 0.880919 0.633488
383 1 0.753606 0.873143 0.620049
384 1 0.874053 0.884845 0.622046
385 1 1.00652 1.00338 0.744597
386 1 0.124591 1.00502 0.745485
387 1 0.250692 0.995747 0.75341
388 1 0.377399 0.994508 0.756072
389 1 0.503547 0.995395 0.749448
390 1 0.626286 1.00378 0.73962
391 1 0.755931 0.995922 0.747455
392 1 0.867752 1.00677 0.751161
393 1 1.00605 0.118988 0.750434
394 1 0.126637 0.129643 0.75065
395 1 0.257666 0.113028 0.759353