ITEM: TIMESTEP
0
ITEM: NUMBER OF ATOMS
512
ITEM: BOX BOUNDS xy xz yz pp pp pp
0.0000000000000000e+00 4.0899056209999998e+01 1.0224764049999999e+01
0.0000000000000000e+00 2.3613081120000000e+01 1.0224764049999999e+01
0.0000000000000000e+00 1.6696969780000000e+01 5.9032702800000001e+00
ITEM: ATOMS id type xs ys zs
1 1 0 0 0
2 1 0.125 0 0
3 1 0.25 0 0
4 1 0.375 0 0
5 1 0.5 0 0
6 1 0.625 0 0
7 1 0.75 0 0
8 1 0.875 0 0
9 1 4.22136e-11 0.125 0
10 1 0.125 0.125 0
11 1 0.25 0.125 0
12 1 0.375 0.125 0
13 1 0.5 0.125 0
14 1 0.625 0.125 0
15 1 0.75 0.125 0
16 1 0.875 0.125 0
17 1 1 0.25 0
18 1 0.125 0.25 0
19 1 0.25 0.25 0
20 1 0.375 0.25 0
21 1 0.5 0.25 0
22 1 0.625 0.25 0
23 1 0.75 0.25 0
24 1 0.875 0.25 0
25 1 1 0.375 0
26 1 0.125 0.375 0
27 1 0.25 0.375 0
28 1 0.375 0.375 0
29 1 0.5 0.375 0
30 1 0.625 0.375 0
31 1 0.75 0.375 0
32 1 0.875 0.375 0
33 1 2.44504e-10 0.5 0
34 1 0.125 0.5 0
35 1 0.25 0.5 0
36 1 0.375 0.5 0
37 1 0.5 0.5 0
38 1 0.625 0.5 0
39 1 0.75 0.5 0
40 1 0.875 0.5 0
41 1 1 0.625 0
42 1 0.125 0.625 0
43 1 0.25 0.625 0
44 1 0.375 0.625 0
45 1 0.5 0.625 0
46 1 0.625 0.625 0
47 1 0.75 0.625 0
48 1 0.875 0.625 0
49 1 1.22252e-10 0.75 0
50 1 0.125 0.75 0
51 1 0.25 0.75 0
52 1 0.375 0.75 0
53 1 0.5 0.75 0
54 1 0.625 0.75 0
55 1 0.75 0.75 0
56 1 0.875 0.75 0
57 1 1.64466e-10 0.875 0
58 1 0.125 0.875 0
59 1 0.25 0.875 0
60 1 0.375 0.875 0
61 1 0.5 0.875 0
62 1 0.625 0.875 0
63 1 0.75 0.875 0
64 1 0.875 0.875 0
65 1 9.21228e-11 3.32239e-10 0.125
66 1 0.125 3.32239e-10 0.125
67 1 0.25 3.32239e-10 0.125
68 1 0.375 3.32239e-10 0.125
69 1 0.5 3.32239e-10 0.125
70 1 0.625 3.32239e-10 0.125
71 1 0.75 3.32239e-10 0.125
72 1 0.875 3.32239e-10 0.125
73 1 1 0.125 0.125
74 1 0.125 0.125 0.125
75 1 0.25 0.125 0.125
76 1 0.375 0.125 0.125
77 1 0.5 0.125 0.125
78 1 0.625 0.125 0.125
79 1 0.75 0.125 0.125
80 1 0.875 0.125 0.125
81 1 1 0.25 0.125
82 1 0.125 0.25 0.125
83 1 0.25 0.25 0.125
84 1 0.375 0.25 0.125
85 1 0.5 0.25 0.125
86 1 0.625 0.25 0.125
87 1 0.75 0.25 0.125
88 1 0.875 0.25 0.125
89 1 2.94414e-10 0.375 0.125
90 1 0.125 0.375 0.125
91 1 0.25 0.375 0.125
92 1 0.375 0.375 0.125
93 1 0.5 0.375 0.125
94 1 0.625 0.375 0.125
95 1 0.75 0.375 0.125
96 1 0.875 0.375 0.125
97 1 1 0.5 0.125
98 1 0.125 0.5 0.125
99 1 0.25 0.5 0.125
100 1 0.375 0.5 0.125
101 1 0.5 0.5 0.125
102 1 0.625 0.5 0.125
103 1 0.75 0.5 0.125
104 1 0.875 0.5 0.125
105 1 1.72161e-10 0.625 0.125
106 1 0.125 0.625 0.125
107 1 0.25 0.625 0.125
108 1 0.375 0.625 0.125
109 1 0.5 0.625 0.125
110 1 0.625 0.625 0.125
111 1 0.75 0.625 0.125
112 1 0.875 0.625 0.125
113 1 2.14375e-10 0.75 0.125
114 1 0.125 0.75 0.125
115 1 0.25 0.75 0.125
116 1 0.375 0.75 0.125
117 1 0.5 0.75 0.125
118 1 0.625 0.75 0.125
119 1 0.75 0.75 0.125
120 1 0.875 0.75 0.125
121 1 5.38918e-10 0.875 0.125
122 1 0.125 0.875 0.125
123 1 0.25 0.875 0.125
124 1 0.375 0.875 0.125
125 1 0.5 0.875 0.125
126 1 0.625 0.875 0.125
127 1 0.75 0.875 0.125
128 1 0.875 0.875 0.125
129 1 1 1 0.25
130 1 0.125 1 0.25
131 1 0.25 1 0.25
132 1 0.375 1 0.25
133 1 0.5 1 0.25
134 1 0.625 1 0.25
135 1 0.75 1 0.25
136 1 0.875 1 0.25
137 1 1 0.125 0.25
138 1 0.125 0.125 0.25
139 1 0.25 0.125 0.25
140 1 0.375 0.125 0.25
141 1 0.5 0.125 0.25
142 1 0.625 0.125 0.25
143 1 0.75 0.125 0.25
144 1 0.875 0.125 0.25
145 1 1.44686e-10 0.25 0.25
146 1 0.125 0.25 0.25
147 1 0.25 0.25 0.25
148 1 0.375 0.25 0.25
149 1 0.5 0.25 0.25
150 1 0.625 0.25 0.25
151 1 0.75 0.25 0.25
152 1 0.875 0.25 0.25
153 1 1 0.375 0.25
154 1 0.125 0.375 0.25
155 1 0.25 0.375 0.25
156 1 0.375 0.375 0.25
157 1 0.5 0.375 0.25
158 1 0.625 0.375 0.25
159 1 0.75 0.375 0.25
160 1 0.875 0.375 0.25
161 1 2.24337e-11 0.5 0.25
162 1 0.125 0.5 0.25
163 1 0.25 0.5 0.25
164 1 0.375 0.5 0.25
165 1 0.5 0.5 0.25
166 1 0.625 0.5 0.25
167 1 0.75 0.5 0.25
168 1 0.875 0.5 0.25
169 1 6.46474e-11 0.625 0.25
170 1 0.125 0.625 0.25
171 1 0.25 0.625 0.25
172 1 0.375 0.625 0.25
173 1 0.5 0.625 0.25
174 1 0.625 0.625 0.25
175 1 0.75 0.625 0.25
176 1 0.875 0.625 0.25
177 1 3.8919e-10 0.75 0.25
178 1 0.125 0.75 0.25
179 1 0.25 0.75 0.25
180 1 0.375 0.75 0.25
181 1 0.5 0.75 0.25
182 1 0.625 0.75 0.25
183 1 0.75 0.75 0.25
184 1 0.875 0.75 0.25
185 1 1 0.875 0.25
186 1 0.125 0.875 0.25
187 1 0.25 0.875 0.25
188 1 0.375 0.875 0.25
189 1 0.5 0.875 0.25
190 1 0.625 0.875 0.25
191 1 0.75 0.875 0.25
192 1 0.875 0.875 0.25
193 1 1 2.3242e-10 0.375
194 1 0.125 2.3242e-10 0.375
195 1 0.25 2.3242e-10 0.375
196 1 0.375 2.3242e-10 0.375
197 1 0.5 2.3242e-10 0.375
198 1 0.625 2.3242e-10 0.375
199 1 0.75 2.3242e-10 0.375
200 1 0.875 2.3242e-10 0.375
201 1 1.94595e-10 0.125 0.375
202 1 0.125 0.125 0.375
203 1 0.25 0.125 0.375
204 1 0.375 0.125 0.375
205 1 0.5 0.125 0.375
206 1 0.625 0.125 0.375
207 1 0.75 0.125 0.375
208 1 0.875 0.125 0.375
209 1 1 0.25 0.375
210 1 0.125 0.25 0.375
211 1 0.25 0.25 0.375
212 1 0.375 0.25 0.375
213 1 0.5 0.25 0.375
214 1 0.625 0.25 0.375
215 1 0.75 0.25 0.375
216 1 0.875 0.25 0.375
217 1 7.2343e-11 0.375 0.375
218 1 0.125 0.375 0.375
219 1 0.25 0.375 0.375
220 1 0.375 0.375 0.375
221 1 0.5 0.375 0.375
222 1 0.625 0.375 0.375
223 1 0.75 0.375 0.375
224 1 0.875 0.375 0.375
225 1 1.14557e-10 0.5 0.375
226 1 0.125 0.5 0.375
227 1 0.25 0.5 0.375
228 1 0.375 0.5 0.375
229 1 0.5 0.5 0.375
230 1 0.625 0.5 0.375
231 1 0.75 0.5 0.375
232 1 0.875 0.5 0.375
233 1 4.39099e-10 0.625 0.375
234 1 0.125 0.625 0.375
235 1 0.25 0.625 0.375
236 1 0.375 0.625 0.375
237 1 0.5 0.625 0.375
238 1 0.625 0.625 0.375
239 1 0.75 0.625 0.375
240 1 0.875 0.625 0.375
241 1 1 0.75 0.375
242 1 0.125 0.75 0.375
243 1 0.25 0.75 0.375
244 1 0.375 0.75 0.375
245 1 0.5 0.75 0.375
246 1 0.625 0.75 0.375
247 1 0.75 0.75 0.375
248 1 0.875 0.75 0.375
249 1 3.16847e-10 0.875 0.375
250 1 0.125 0.875 0.375
251 1 0.25 0.875 0.375
252 1 0.375 0.875 0.375
253 1 0.5 0.875 0.375
254 1 0.625 0.875 0.375
255 1 0.75 0.875 0.375
256 1 0.875 0.875 0.375
257 1 2.44504e-10 0 0.5
258 1 0.125 0 0.5
259 1 0.25 0 0.5
260 1 0.375 0 0.5
261 1 0.5 0 0.5
262 1 0.625 0 0.5
263 1 0.75 0 0.5
264 1 0.875 0 0.5
265 1 1 0.125 0.5
266 1 0.125 0.125 0.5
267 1 0.25 0.125 0.5
268 1 0.375 0.125 0.5
269 1 0.5 0.125 0.5
270 1 0.625 0.125 0.5
271 1 0.75 0.125 0.5
272 1 0.875 0.125 0.5
273 1 1.22252e-10 0.25 0.5
274 1 0.125 0.25 0.5
275 1 0.25 0.25 0.5
276 1 0.375 0.25 0.5
277 1 0.5 0.25 0.5
278 1 0.625 0.25 0.5
279 1 0.75 0.25 0.5
280 1 0.875 0.25 0.5
281 1 1.64466e-10 0.375 0.5
282 1 0.125 0.375 0.5
283 1 0.25 0.375 0.5
284 1 0.375 0.375 0.5
285 1 0.5 0.375 0.5
286 1 0.625 0.375 0.5
287 1 0.75 0.375 0.5
288 1 0.875 0.375 0.5
289 1 4.89009e-10 0.5 0.5
290 1 0.125 0.5 0.5
291 1 0.25 0.5 0.5
292 1 0.375 0.5 0.5
293 1 0.5 0.5 0.5
294 1 0.625 0.5 0.5
295 1 0.75 0.5 0.5
296 1 0.875 0.5 0.5
297 1 4.22134e-11 0.625 0.5
298 1 0.125 0.625 0.5
299 1 0.25 0.625 0.5
300 1 0.375 0.625 0.5
301 1 0.5 0.625 0.5
302 1 0.625 0.625 0.5
303 1 0.75 0.625 0.5
304 1 0.875 0.625 0.5
305 1 3.66757e-10 0.75 0.5
306 1 0.125 0.75 0.5
307 1 0.25 0.75 0.5
308 1 0.375 0.75 0.5
309 1 0.5 0.75 0.5
310 1 0.625 0.75 0.5
311 1 0.75 0.75 0.5
312 1 0.875 0.75 0.5
313 1 4.0897e-10 0.875 0.5
314 1 0.125 0.875 0.5
315 1 0.25 0.875 0.5
316 1 0.375 0.875 0.5
317 1 0.5 0.875 0.5
318 1 0.625 0.875 0.5
319 1 0.75 0.875 0.5
320 1 0.875 0.875 0.5
321 1 1 1.32602e-10 0.625
322 1 0.125 1.32602e-10 0.625
323 1 0.25 1.32602e-10 0.625
324 1 0.375 1.32602e-10 0.625
325 1 0.5 1.32602e-10 0.625
326 1 0.625 1.32602e-10 0.625
327 1 0.75 1.32602e-10 0.625
328 1 0.875 1.32602e-10 0.625
329 1 1 0.125 0.625
330 1 0.125 0.125 0.625
331 1 0.25 0.125 0.625
332 1 0.375 0.125 0.625
333 1 0.5 0.125 0.625
334 1 0.625 0.125 0.625
335 1 0.75 0.125 0.625
336 1 0.875 0.125 0.625
337 1 1.47379e-11 0.25 0.625
338 1 0.125 0.25 0.625
339 1 0.25 0.25 0.625
340 1 0.375 0.25 0.625
341 1 0.5 0.25 0.625
342 1 0.625 0.25 0.625
343 1 0.75 0.25 0.625
344 1 0.875 0.25 0.625
345 1 3.39281e-10 0.375 0.625
346 1 0.125 0.375 0.625
347 1 0.25 0.375 0.625
348 1 0.375 0.375 0.625
349 1 0.5 0.375 0.625
350 1 0.625 0.375 0.625
351 1 0.75 0.375 0.625
352 1 0.875 0.375 0.625
353 1 1 0.5 0.625
354 1 0.125 0.5 0.625
355 1 0.25 0.5 0.625
356 1 0.375 0.5 0.625
357 1 0.5 0.5 0.625
358 1 0.625 0.5 0.625
359 1 0.75 0.5 0.625
360 1 0.875 0.5 0.625
361 1 2.17029e-10 0.625 0.625
362 1 0.125 0.625 0.625
363 1 0.25 0.625 0.625
364 1 0.375 0.625 0.625
365 1 0.5 0.625 0.625
366 1 0.625 0.625 0.625
367 1 0.75 0.625 0.625
368 1 0.875 0.625 0.625
369 1 2.59242e-10 0.75 0.625
370 1 0.125 0.75 0.625
371 1 0.25 0.75 0.625
372 1 0.375 0.75 0.625
373 1 0.5 0.75 0.625
374 1 0.625 0.75 0.625
375 1 0.75 0.75 0.625
376 1 0.875 0.75 0.625
377 1 9.47767e-11 0.875 0.625
378 1 0.125 0.875 0.625
379 1 0.25 0.875 0.625
380 1 0.375 0.875 0.625
381 1 0.5 0.875 0.625
382 1 0.625 0.875 0.625
383 1 0.75 0.875 0.625
384 1 0.875 0.875 0.625
385 1 2.24335e-11 1 0.75
386 1 0.125 1 0.75
387 1 0.25 1 0.75
388 1 0.375 1 0.75
389 1 0.5 1 0.75
390 1 0.625 1 0.75
391 1 0.75 1 0.75
392 1 0.875 1 0.75
393 1 6.46473e-11 0.125 0.75
394 1 0.125 0.125 0.75
395 1 0.25 0.125 0.75
396 1 0.375 0.125 0.75
397 1 0.5 0.125 0.75
398 1 0.625 0.125 0.75
399 1 0.75 0.125 0.75
400 1 0.875 0.125 0.75
401 1 3.8919e-10 0.25 0.75
402 1 0.125 0.25 0.75
403 1 0.25 0.25 0.75
404 1 0.375 0.25 0.75
405 1 0.5 0.25 0.75
406 1 0.625 0.25 0.75
407 1 0.75 0.25 0.75
408 1 0.875 0.25 0.75
409 1 1 0.375 0.75
410 1 0.125 0.375 0.75
411 1 0.25 0.375 0.75
412 1 0.375 0.375 0.75
413 1 0.5 0.375 0.75
414 1 0.625 0.375 0.75
415 1 0.75 0.375 0.75
416 1 0.875 0.375 0.75
417 1 2.66938e-10 0.5 0.75
418 1 0.125 0.5 0.75
419 1 0.25 0.5 0.75
420 1 0.375 0.5 0.75
421 1 0.5 0.5 0.75
422 1 0.625 0.5 0.75
423 1 0.75 0.5 0.75
424 1 0.875 0.5 0.75
425 1 3.09152e-10 0.625 0.75
426 1 0.125 0.625 0.75
427 1 0.25 0.625 0.75
428 1 0.375 0.625 0.75
429 1 0.5 0.625 0.75
430 1 0.625 0.625 0.75
431 1 0.75 0.625 0.75
432 1 0.875 0.625 0.75
433 1 1.44686e-10 0.75 0.75
434 1 0.125 0.75 0.75
435 1 0.25 0.75 0.75
436 1 0.375 0.75 0.75
437 1 0.5 0.75 0.75
438 1 0.625 0.75 0.75
439 1 0.75 0.75 0.75
440 1 0.875 0.75 0.75
441 1 1.86899e-10 0.875 0.75
442 1 0.125 0.875 0.75
443 1 0.25 0.875 0.75
444 1 0.375 0.875 0.75
445 1 0.5 0.875 0.75
446 1 0.625 0.875 0.75
447 1 0.75 0.875 0.75
448 1 0.875 0.875 0.75
449 1 1.14557e-10 2.3242e-10 0.875
450 1 0.125 2.3242e-10 0.875
451 1 0.25 2.3242e-10 0.875
452 1 0.375 2.3242e-10 0.875
453 1 0.5 2.3242e-10 0.875
454 1 0.625 2.3242e-10 0.875
455 1 0.75 2.3242e-10 0.875
456 1 0.875 2.3242e-10 0.875
457 1 4.39099e-10 0.125 0.875
458 1 0.125 0.125 0.875
459 1 0.25 0.125 0.875
460 1 0.375 0.125 0.875
461 1 0.5 0.125 0.875
462 1 0.625 0.125 0.875
463 1 0.75 0.125 0.875
464 1 0.875 0.125 0.875
465 1 1 0.25 0.875
466 1 0.125 0.25 0.875
467 1 0.25 0.25 0.875
468 1 0.375 0.25 0.875
469 1 0.5 0.25 0.875
470 1 0.625 0.25 0.875
471 1 0.75 0.25 0.875
472 1 0.875 0.25 0.875
473 1 3.16847e-10 0.375 0.875
474 1 0.125 0.375 0.875
475 1 0.25 0.375 0.875
476 1 0.375 0.375 0.875
477 1 0.5 0.375 0.875
478 1 0.625 0.375 0.875
479 1 0.75 0.375 0.875
480 1 0.875 0.375 0.875
481 1 3.59061e-10 0.5 0.875
482 1 0.125 0.5 0.875
483 1 0.25 0.5 0.875
484 1 0.375 0.5 0.875
485 1 0.5 0.5 0.875
486 1 0.625 0.5 0.875
487 1 0.75 0.5 0.875
488 1 0.875 0.5 0.875
489 1 1.94595e-10 0.625 0.875
490 1 0.125 0.625 0.875
491 1 0.25 0.625 0.875
492 1 0.375 0.625 0.875
493 1 0.5 0.625 0.875
494 1 0.625 0.625 0.875
495 1 0.75 0.625 0.875
496 1 0.875 0.625 0.875
497 1 2.36809e-10 0.75 0.875
498 1 0.125 0.75 0.875
499 1 0.25 0.75 0.875
500 1 0.375 0.75 0.875
501 1 0.5 0.75 0.875
502 1 0.625 0.75 0.875
503 1 0.75 0.75 0.875
504 1 0.875 0.75 0.875
505 1 5.61352e-10 0.875 0.875
506 1 0.125 0.875 0.875
507 1 0.25 0.875 0.875
508 1 0.375 0.875 0.875
509 1 0.5 0.875 0.875
510 1 0.625 0.875 0.875
511 1 0.75 0.875 0.875
512 1 0.875 0.875 0.875
ITEM: TIMESTEP
50000
ITEM: NUMBER OF ATOMS
512
ITEM: BOX BOUNDS xy xz yz pp pp pp
-4.9817319785182335e-02 4.1048508169306125e+01 1.0274581369760694e+01
-4.3143064485775540e-02 2.3684986227476433e+01 1.0274581369760694e+01
-4.0675671267425884e-02 1.6737645451268058e+01 5.9320323229905982e+00
ITEM: ATOMS id type xs ys zs
1 1 0.00359357 0.992641 0.000277927
2 1 0.128733 0.00121313 0.999709
3 1 0.250436 1.00348 0.00156451
4 1 0.373946 0.00238796 0.00514154
5 1 0.502206 0.00256516 0.992081
6 1 0.618589 0.00537661 1.00115
7 1 0.754219 0.00278791 0.992277
8 1 0.874673 0.991857 0.00134993
9 1 0.996364 0.125732 1.00126
10 1 0.119717 0.126942 0.999466
11 1 0.254759 0.118431 1.00042
12 1 0.377062 0.126083 0.994993
13 1 0.491089 0.131867 0.997005
14 1 0.623079 0.132646 -0.000365042
15 1 0.752967 0.121539 1.00086
16 1 0.872309 0.121483 0.999171
17 1 0.997566 0.25827 0.993339
18 1 0.128614 0.255275 0.991252
19 1 0.249448 0.253465 -0.00105955
20 1 0.374108 0.253572 0.998524
21 1 0.505039 0.245071 -0.00293103
22 1 0.622383 0.247467 0.0109044
23 1 0.739535 0.266587 0.994982
24 1 0.870171 0.240982 0.0109282
25 1 0.994439 0.372742 0.0113682
26 1 0.118009 0.378626 -0.0015215
27 1 0.25114 0.370116 0.00338447
28 1 0.382706 0.378201 0.992432
29 1 0.508056 0.374006 0.000911456
30 1 0.623709 0.390136 -0.0052387
31 1 0.763675 0.378919 0.992822
32 1 0.882955 0.376394 0.00265885
33 1 0.994566 0.503242 0.998402
34 1 0.127988 0.497516 0.00102805
35 1 0.255464 0.492893 -0.000191801
36 1 0.380282 0.487142 0.0124311
37 1 0.501691 0.505827 0.991785
38 1 0.627848 0.508792 0.991288
39 1 0.758625 0.497242 0.996289
40 1 0.875263 0.498524 0.00402507
41 1 0.996368 0.627974 0.00246892
42 1 0.121602 0.626326 1.00068
43 1 0.251523 0.615229 0.996747
44 1 0.363099 0.618453 0.00611382
45 1 0.505331 0.626078 0.994855
46 1 0.627244 0.627808 0.992834
47 1 0.753121 0.626265 0.992507
48 1 0.871077 0.631174 0.992274
49 1 1.00257 0.743979 0.00642624
50 1 0.133332 0.751518 0.991152
51 1 0.257278 0.74686 0.999168
52 1 0.382843 0.74571 0.99394
53 1 0.49409 0.752128 0.00859728
54 1 0.621619 0.758229 0.00583795
55 1 0.744721 0.753388 0.996233
56 1 0.871173 0.750951 -0.000714451
57 1 0.00627904 0.867847 0.997493
58 1 0.126363 0.875847 -0.00160319
59 1 0.249085 0.870661 1.00132
60 1 0.365864 0.872654 0.0103648
61 1 0.492232 0.882719 1.00222
62 1 0.622781 0.881472 1.00087
63 1 0.750058 0.880728 0.999582
64 1 0.876343 0.8747 0.000353496
65 1 0.00271395 1.00604 0.126527
66 1 0.125178 0.00639863 0.120128
67 1 0.247004 0.00344294 0.126205
68 1 0.368589 0.0125051 0.121712
69 1 0.506422 0.999159 0.119186
70 1 0.62336 0.00533346 0.126366
71 1 0.751599 0.993129 0.121724
72 1 0.880194 0.994107 0.123955
73 1 -0.00432744 0.125292 0.129305
74 1 0.120879 0.135636 0.118211
75 1 0.24329 0.125223 0.127435
76 1 0.374961 0.129307 0.124738
77 1 0.495552 0.127692 0.121826
78 1 0.630411 0.116043 0.132251
79 1 0.753989 0.135038 0.11738
80 1 0.872969 0.122322 0.131113
81 1 1.0016 0.246254 0.118188
82 1 0.11945 0.25459 0.117477
83 1 0.252442 0.251523 0.121569
84 1 0.37746 0.247064 0.126287
85 1 0.506072 0.249332 0.126493
86 1 0.624998 0.256703 0.123877
87 1 0.752322 0.244727 0.127917
88 1 0.871792 0.248656 0.126785
89 1 0.999396 0.371088 0.133382
90 1 0.126566 0.376696 0.124123
91 1 0.26043 0.374221 0.121994
92 1 0.379279 0.368666 0.132117
93 1 0.499601 0.378019 0.122673
94 1 0.627999 0.369917 0.128353
95 1 0.747297 0.380841 0.126576
96 1 0.872709 0.374715 0.129997
97 1 0.00597912 0.494745 0.124901
98 1 0.12853 0.496187 0.12989
99 1 0.2492 0.503214 0.131248
100 1 0.381789 0.494605 0.130427
101 1 0.510674 0.495524 0.121428
102 1 0.632675 0.500345 0.119891
103 1 0.747608 0.49721 0.133489
104 1 0.877229 0.502614 0.121474
105 1 0.00832254 0.617211 0.127333
106 1 0.126775 0.624341 0.127185
107 1 0.251125 0.627902 0.128844
108 1 0.383629 0.623902 0.118698
109 1 0.500146 0.631457 0.120374
110 1 0.630193 0.624083 0.120239
111 1 0.751013 0.621306 0.121519
112 1 0.880862 0.62462 0.124388
113 1 0.00908838 0.744874 0.133019
114 1 0.127652 0.748613 0.126237
115 1 0.244058 0.755721 0.127162
116 1 0.36494 0.756885 0.128494
117 1 0.490544 0.763255 0.12085
118 1 0.62799 0.747794 0.12765
119 1 0.755261 0.738293 0.131401
120 1 0.878576 0.750221 0.125903
121 1 1.00294 0.874826 0.125739
122 1 0.122231 0.880603 0.125918
123 1 0.240113 0.879556 0.132195
124 1 0.369122 0.881242 0.128671
125 1 0.511208 0.876294 0.119665
126 1 0.63001 0.872933 0.121522
127 1 0.756219 0.873844 0.117999
128 1 0.878747 0.867784 0.128256
129 1 0.00831992 0.00467021 0.249733
130 1 0.117482 0.00653964 0.255566
131 1 0.249758 0.000698836 0.254447
132 1 0.370468 0.99739 0.252427
133 1 0.495302 0.994459 0.25977
134 1 0.625455 0.994769 0.251419
135 1 0.744149 1.0026 0.251037
136 1 0.877491 0.998889 0.251929
137 1 0.998218 0.129449 0.248433
138 1 0.125468 0.130397 0.242617
139 1 0.257626 0.121739 0.247147
140 1 0.376361 0.121282 0.246452
141 1 0.492519 0.122357 0.251977
142 1 0.619928 0.130653 0.245892
143 1 0.747396 0.125718 0.253926
144 1 0.864122 0.125056 0.258807
145 1 0.00123536 0.253216 0.250182
146 1 0.131205 0.244236 0.253795
147 1 0.250394 0.243249 0.252548
148 1 0.3702 0.249298 0.251624
149 1 0.504395 0.253531 0.244543
150 1 0.62407 0.246769 0.250222
151 1 0.741374 0.250883 0.25671
152 1 0.880388 0.250997 0.239271
153 1 0.00145136 0.372915 0.251608
154 1 0.130832 0.368568 0.249071
155 1 0.25413 0.374739 0.250375
156 1 0.374293 0.372071 0.255878
157 1 0.508876 0.373868 0.247914
158 1 0.629175 0.376723 0.244573
159 1 0.756794 0.372143 0.253483
160 1 0.877198 0.375173 0.248208
161 1 0.0066708 0.49222 0.246027
162 1 0.125257 0.497414 0.246226
163 1 0.255633 0.504679 0.249555
164 1 0.380882 0.503393 0.251068
165 1 0.495787 0.498763 0.256408
166 1 0.630378 0.49546 0.249936
167 1 0.752404 0.503677 0.252727
168 1 0.877014 0.498358 0.250099
169 1 -0.000565856 0.625388 0.258971
170 1 0.123869 0.624339 0.250541
171 1 0.254736 0.621624 0.254199
172 1 0.374377 0.627127 0.24987
173 1 0.506648 0.623557 0.240751
174 1 0.624535 0.625243 0.250221
175 1 0.752612 0.617355 0.253143
176 1 0.873049 0.629795 0.249246
177 1 0.00805163 0.747615 0.251769
178 1 0.129554 0.744731 0.247399
179 1 0.244746 0.749292 0.253042
180 1 0.377357 0.753479 0.24627
181 1 0.503347 0.746839 0.252968
182 1 0.624826 0.75667 0.244756
183 1 0.746226 0.745817 0.254115
184 1 0.867462 0.746968 0.254447
185 1 0.996016 0.874426 0.255253
186 1 0.128546 0.871296 0.254663
187 1 0.247147 0.875365 0.250479
188 1 0.373494 0.885446 0.242564
189 1 0.499741 0.871487 0.253155
190 1 0.623696 0.871898 0.251083
191 1 0.746379 0.869758 0.251942
192 1 0.874797 0.871888 0.247897
193 1 0.997561 0.998092 0.374988
194 1 0.123641 0.998913 0.372313
195 1 0.243426 0.99745 0.383381
196 1 0.370894 0.00487912 0.379034
197 1 0.500894 0.991555 0.382828
198 1 0.618087 0.00651017 0.37189
199 1 0.753304 0.996109 0.376195
200 1 0.882188 -0.00392527 0.37199
201 1 1.00065 0.125484 0.376161
202 1 0.122657 0.130425 0.370335
203 1 0.240735 0.124736 0.379405
204 1 0.373229 0.12903 0.373493
205 1 0.498601 0.118728 0.38062
206 1 0.621203 0.126562 0.374259
207 1 0.752495 0.122698 0.376792
208 1 0.882778 0.122755 0.370179
209 1 0.99636 0.253895 0.378239
210 1 0.125732 0.244044 0.380859
211 1 0.249471 0.254894 0.37221
212 1 0.376474 0.244353 0.377694
213 1 0.500909 0.246233 0.378223
214 1 0.622366 0.255918 0.371257
215 1 0.761215 0.25405 0.365911
216 1 0.878469 0.25023 0.368157
217 1 0.996217 0.380439 0.369724
218 1 0.126171 0.375825 0.368893
219 1 0.251582 0.374036 0.380776
220 1 0.374377 0.385618 0.367803
221 1 0.496395 0.376407 0.37793
222 1 0.628915 0.380292 0.366992
223 1 0.753357 0.378747 0.372259
224 1 0.877183 0.37642 0.373549
225 1 1.00182 0.499271 0.37585
226 1 0.125309 0.494296 0.374193
227 1 0.252426 0.498633 0.378245
228 1 0.379206 0.496293 0.376284
229 1 0.500862 0.497442 0.37538
230 1 0.615839 0.507573 0.377435
231 1 0.736169 0.509009 0.381008
232 1 0.869308 0.510601 0.37563
233 1 0.00409426 0.621113 0.378759
234 1 0.127417 0.621381 0.374849
235 1 0.255936 0.627165 0.376719
236 1 0.386919 0.624863 0.361751
237 1 0.496145 0.625941 0.380566
238 1 0.624877 0.631585 0.369044
239 1 0.748779 0.62925 0.375319
240 1 0.874337 0.626861 0.378081
241 1 0.00222007 0.747314 0.374303
242 1 0.132142 0.748407 0.373247
243 1 0.248864 0.752736 0.376539
244 1 0.373465 0.750325 0.372548
245 1 0.495378 0.751975 0.382973
246 1 0.622403 0.753182 0.378178
247 1 0.745299 0.749258 0.377834
248 1 0.879254 0.742531 0.375097
249 1 -0.000353046 0.873771 0.36926
250 1 0.127505 0.873709 0.380116
251 1 0.244766 0.880812 0.375536
252 1 0.364769 0.883118 0.3774
253 1 0.489972 0.880445 0.381795
254 1 0.621533 0.878383 0.380276
255 1 0.741946 0.877014 0.374765
256 1 0.869709 0.868862 0.380508
257 1 0.992335 0.00714323 0.496254
258 1 0.121642 0.000757276 0.497324
259 1 0.246075 1.00016 0.500754
260 1 0.370978 0.00324254 0.49753
261 1 0.493178 1.00074 0.502727
262 1 0.624333 0.00581624 0.49061
263 1 0.738978 0.00531855 0.498404
264 1 0.873888 0.0042077 0.497035
265 1 0.993089 0.124982 0.504315
266 1 0.120751 0.127429 0.495636
267 1 0.246334 0.12724 0.501718
268 1 0.371206 0.127579 0.504686
269 1 0.496276 0.128542 0.49472
270 1 0.615791 0.125978 0.508379
271 1 0.750269 0.125198 0.498834
272 1 0.873829 0.131286 0.49731
273 1 0.995729 0.254185 0.499095
274 1 0.122188 0.251995 0.501638
275 1 0.254999 0.250972 0.494501
276 1 0.369286 0.250174 0.503153
277 1 0.487232 0.241048 0.510313
278 1 0.631058 0.248566 0.492395
279 1 0.747357 0.255912 0.495523
280 1 0.872742 0.249835 0.500819
281 1 0.999057 0.368462 0.496085
282 1 0.131945 0.369118 0.502483
283 1 0.251763 0.370934 0.504921
284 1 0.38129 0.364708 0.50825
285 1 0.494944 0.366569 0.503523
286 1 0.622681 0.379498 0.495036
287 1 0.745765 0.384726 0.498169
288 1 0.866902 0.376686 0.504617
289 1 0.001861 0.485118 0.502964
290 1 0.123532 0.49378 0.499284
291 1 0.245988 0.494096 0.508211
292 1 0.373204 0.492668 0.507662
293 1 0.4916 0.497324 0.500069
294 1 0.615544 0.502239 0.506787
295 1 0.745617 0.504066 0.503451
296 1 0.875771 0.494471 0.495176
297 1 0.00298231 0.620399 0.502006
298 1 0.12596 0.627019 0.491886
299 1 0.245787 0.627543 0.500371
300 1 0.368789 0.617146 0.498996
301 1 0.49669 0.628736 0.494108
302 1 0.624383 0.62756 0.499194
303 1 0.76159 0.621823 0.501055
304 1 0.879762 0.617621 0.507265
305 1 0.00845311 0.747058 0.497636
306 1 0.122506 0.754162 0.49661
307 1 0.245033 0.750443 0.500945
308 1 0.371387 0.753078 0.498088
309 1 0.497896 0.74592 0.504049
310 1 0.628719 0.750597 0.500986
311 1 0.75529 0.751378 0.499821
312 1 0.884469 0.750422 0.497897
313 1 0.994123 0.870442 0.507456
314 1 0.118801 0.873431 0.506049
315 1 0.244735 0.86642 0.510314
316 1 0.375709 0.871723 0.497774
317 1 0.491813 0.874289 0.504965
318 1 0.625249 0.872714 0.499871
319 1 0.74965 0.881919 0.495808
320 1 0.873907 0.877594 0.49967
321 1 0.00734693 0.991065 0.629686
322 1 0.124654 0.000526899 0.61775
323 1 0.254142 0.995801 0.62713
324 1 0.374009 0.00217812 0.628826
325 1 0.498106 0.00627313 0.623427
326 1 0.626073 0.00279429 0.626405
327 1 0.75518 0.00239068 0.613897
328 1 0.876108 0.99589 0.62209
329 1 -0.000111187 0.122598 0.620175
330 1 0.118984 0.130479 0.626384
331 1 0.249803 0.131768 0.628126
332 1 0.372735 0.134376 0.622225
333 1 0.490438 0.125609 0.633841
334 1 0.629866 0.121695 0.628567
335 1 0.754888 0.126079 0.617976
336 1 0.87741 0.118402 0.626054
337 1 0.00124423 0.25205 0.620663
338 1 0.125583 0.252383 0.61866
339 1 0.239869 0.256479 0.631109
340 1 0.373489 0.24995 0.626719
341 1 0.505798 0.25057 0.620814
342 1 0.628736 0.250478 0.620275
343 1 0.756446 0.246477 0.622616
344 1 0.874747 0.246823 0.630712
345 1 -0.00288057 0.370968 0.625159
346 1 0.120476 0.372714 0.629027
347 1 0.249279 0.37174 0.627176
348 1 0.381408 0.371905 0.627119
349 1 0.49844 0.375051 0.623076
350 1 0.621118 0.369353 0.625119
351 1 0.742179 0.382387 0.622217
352 1 0.881095 0.375215 0.626384
353 1 -0.00572538 0.494845 0.623767
354 1 0.124212 0.500581 0.626823
355 1 0.249269 0.498029 0.629665
356 1 0.372468 0.500246 0.6244
357 1 0.496614 0.500388 0.627276
358 1 0.627882 0.503521 0.618339
359 1 0.756323 0.497243 0.626939
360 1 0.875298 0.502181 0.613962
361 1 0.00526992 0.626319 0.624885
362 1 0.124474 0.625141 0.625579
363 1 0.247278 0.621261 0.625658
364 1 0.370444 0.623645 0.619685
365 1 0.501326 0.623071 0.624993
366 1 0.627853 0.627886 0.620637
367 1 0.751289 0.627852 0.625188
368 1 0.875217 0.626747 0.624338
369 1 0.00482138 0.749857 0.628695
370 1 0.126844 0.750598 0.627085
371 1 0.252078 0.739514 0.636245
372 1 0.383152 0.744693 0.622198
373 1 0.496574 0.752431 0.624847
374 1 0.621211 0.751195 0.623947
375 1 0.752754 0.751347 0.625883
376 1 0.886019 0.753096 0.621331
377 1 0.995491 0.875551 0.633956
378 1 0.122727 0.86964 0.635256
379 1 0.248713 0.877398 0.627538
380 1 0.367174 0.873523 0.628234
381 1 0.498186 0.87543 0.632692
382 1 0.625942 0.878273 0.62222
383 1 0.751635 0.877233 0.626084
384 1 0.871409 0.869943 0.631015
385 1 0.995154 0.00145689 0.74653
386 1 0.125342 0.00318634 0.743276
387 1 0.247359 -0.00243194 0.752348
388 1 0.375678 0.998092 0.753044
389 1 0.502844 0.993986 0.750937
390 1 0.626759 1.00019 0.751857
391 1 0.751291 0.996275 0.74896
392 1 0.874006 0.996358 0.755489
393 1 1.00229 0.125474 0.742911
394 1 0.117158 0.132622 0.744649
395 1 0.253743 0.123028 0.756235
396 1 0.381577 0.115163 0.754281
397 1 0.505651 0.13007 0.744023
398 1 0.629265 0.123117 0.7452
399 1 0.752222 0.125701 0.748521
400 1 0.874266 0.13 0.751562
401 1 0.995848 0.250426 0.746068
402 1 0.115185 0.252399 0.748542
403 1 0.252429 0.250549 0.75304
404 1 0.375453 0.243531 0.749666
405 1 0.503181 0.252294 0.739779
406 1 0.629092 0.25085 0.741574
407 1 0.750947 0.254443 0.747025
408 1 0.882577 0.249529 0.744739
409 1 0.99644 0.375211 0.752706
410 1 0.124249 0.379472 0.749701
411 1 0.256069 0.371732 0.751457
412 1 0.385921 0.371562 0.750626
413 1 0.504464 0.3765 0.749085
414 1 0.623603 0.377475 0.751821
415 1 0.749748 0.37732 0.754885
416 1 0.879354 0.379962 0.742145
417 1 0.994915 0.497261 0.748962
418 1 0.122976 0.498761 0.752315
419 1 0.252455 0.488378 0.758037
420 1 0.373195 0.494926 0.750103
421 1 0.495439 0.502124 0.751934
422 1 0.616278 0.507528 0.747908
423 1 0.753079 0.505885 0.745549
424 1 0.872275 0.496333 0.750444
425 1 0.00390847 0.619553 0.752228
426 1 0.12429 0.623197 0.754765
427 1 0.250924 0.620161 0.754965
428 1 0.379571 0.619199 0.745854
429 1 0.503642 0.627955 0.744579
430 1 0.625475 0.627927 0.740962
431 1 0.75041 0.627908 0.749652
432 1 0.880451 0.627206 0.739845
433 1 0.993774 0.75448 0.748072
434 1 0.119004 0.74233 0.756391
435 1 0.254278 0.743468 0.754037
436 1 0.374743 0.7419 0.753421
437 1 0.497591 0.750728 0.748667
438 1 0.63378 0.755161 0.738995
439 1 0.757632 0.750401 0.741128
440 1 0.871894 0.747334 0.755959
441 1 0.0046092 0.86279 0.755192
442 1 0.12186 0.875899 0.749004
443 1 0.249603 0.879045 0.744194
444 1 0.37122 0.878412 0.748708
445 1 0.496915 0.879375 0.75537
446 1 0.631478 0.882453 0.744837
447 1 0.756397 0.870763 0.755926
448 1 0.877813 0.877602 0.751723
449 1 0.998347 0.993502 0.878443
450 1 0.11746 -0.00169651 0.882867
451 1 0.246213 -0.00335407 0.876456
452 1 0.36711 0.993292 0.883709
453 1 0.501537 0.00438369 0.870252
454 1 0.629373 0.00463316 0.867469
455 1 0.75206 -0.00101941 0.872102
456 1 0.877798 0.00140702 0.874216
457 1 0.997802 0.125195 0.872434
458 1 0.119608 0.124208 0.875126
459 1 0.255021 0.123697 0.869113
460 1 0.372946 0.123259 0.873256
461 1 0.497975 0.12368 0.868609
462 1 0.6209 0.124856 0.873366
463 1 0.750266 0.127867 0.868497
464 1 0.873925 0.123974 0.873911
465 1 0.989029 0.250183 0.878245
466 1 0.125739 0.244976 0.871811
467 1 0.25626 0.241852 0.875627
468 1 0.375126 0.247676 0.870167
469 1 0.500858 0.243453 0.871533
470 1 0.628123 0.249594 0.879235
471 1 0.752418 0.252091 0.870709
472 1 0.869602 0.249575 0.879361
473 1 0.999221 0.373517 0.880511
474 1 0.127761 0.373165 0.86884
475 1 0.254949 0.366421 0.876103
476 1 0.380011 0.374567 0.870241
477 1 0.497314 0.37458 0.87302
478 1 0.627712 0.380356 0.877042
479 1 0.754378 0.379842 0.872595
480 1 0.874158 0.373191 0.879707
481 1 0.000218057 0.49166 0.876914
482 1 0.13075 0.504138 0.875949
483 1 0.249559 0.491327 0.880826
484 1 0.380808 0.492665 0.873573
485 1 0.496163 0.498785 0.875184
486 1 0.632647 0.505 0.867251
487 1 0.749726 0.511687 0.867745
488 1 0.877522 0.49766 0.867137
489 1 0.00414365 0.617013 0.878747
490 1 0.131174 0.629348 0.874188
491 1 0.256997 0.616722 0.872151
492 1 0.376587 0.621246 0.878537
493 1 0.486819 0.628914 0.878525
494 1 0.617207 0.634018 0.866395
495 1 0.74721 0.627033 0.874246
496 1 0.879573 0.621305 0.873243
497 1 0.00131755 0.743666 0.878228
498 1 0.127762 0.754463 0.874919
499 1 0.256017 0.744736 0.8734
500 1 0.37188 0.748888 0.87684
501 1 0.500875 0.756373 0.86626
502 1 0.629565 0.757354 0.868135
503 1 0.747612 0.750503 0.874874
504 1 0.871614 0.751548 0.876931
505 1 0.995749 0.874021 0.872811
506 1 0.124426 0.875988 0.869694
507 1 0.244266 0.872809 0.87432
508 1 0.366932 0.875397 0.878424
509 1 0.491139 0.880434 0.881
510 1 0.620213 0.881446 0.879739
511 1 0.750753 0.8807 0.870364
512 1 0.872915 0.87554 0.87654
ITEM: TIMESTEP
100000
ITEM: NUMBER OF ATOMS
512
ITEM: BOX BOUNDS xy xz yz pp pp pp