ITEM: TIMESTEP
0
ITEM: NUMBER OF ATOMS
512
ITEM: BOX BOUNDS xy xz yz pp pp pp
0.0000000000000000e+00 4.5782964489999998e+01 1.1445741119999999e+01
0.0000000000000000e+00 2.6432806880000001e+01 1.1445741119999999e+01
0.0000000000000000e+00 1.8690816980000001e+01 6.6082017200000003e+00
ITEM: ATOMS id type xs ys zs
1 1 0 0 0
2 1 0.125 0 0
3 1 0.25 0 0
4 1 0.375 0 0
5 1 0.5 0 0
6 1 0.625 0 0
7 1 0.75 0 0
8 1 0.875 0 0
9 1 1 0.125 0
10 1 0.125 0.125 0
11 1 0.25 0.125 0
12 1 0.375 0.125 0
13 1 0.5 0.125 0
14 1 0.625 0.125 0
15 1 0.75 0.125 0
16 1 0.875 0.125 0
17 1 1 0.25 0
18 1 0.125 0.25 0
19 1 0.25 0.25 0
20 1 0.375 0.25 0
21 1 0.5 0.25 0
22 1 0.625 0.25 0
23 1 0.75 0.25 0
24 1 0.875 0.25 0
25 1 1 0.375 0
26 1 0.125 0.375 0
27 1 0.25 0.375 0
28 1 0.375 0.375 0
29 1 0.5 0.375 0
30 1 0.625 0.375 0
31 1 0.75 0.375 0
32 1 0.875 0.375 0
33 1 3.30915e-10 0.5 0
34 1 0.125 0.5 0
35 1 0.25 0.5 0
36 1 0.375 0.5 0
37 1 0.5 0.5 0
38 1 0.625 0.5 0
39 1 0.75 0.5 0
40 1 0.875 0.5 0
41 1 1 0.625 0
42 1 0.125 0.625 0
43 1 0.25 0.625 0
44 1 0.375 0.625 0
45 1 0.5 0.625 0
46 1 0.625 0.625 0
47 1 0.75 0.625 0
48 1 0.875 0.625 0
49 1 1 0.75 0
50 1 0.125 0.75 0
51 1 0.25 0.75 0
52 1 0.375 0.75 0
53 1 0.5 0.75 0
54 1 0.625 0.75 0
55 1 0.75 0.75 0
56 1 0.875 0.75 0
57 1 1.87154e-10 0.875 0
58 1 0.125 0.875 0
59 1 0.25 0.875 0
60 1 0.375 0.875 0
61 1 0.5 0.875 0
62 1 0.625 0.875 0
63 1 0.75 0.875 0
64 1 0.875 0.875 0
65 1 1 6.95292e-10 0.125
66 1 0.125 6.95292e-10 0.125
67 1 0.25 6.95292e-10 0.125
68 1 0.375 6.95292e-10 0.125
69 1 0.5 6.95292e-10 0.125
70 1 0.625 6.95292e-10 0.125
71 1 0.75 6.95292e-10 0.125
72 1 0.875 6.95292e-10 0.125
73 1 9.27557e-12 0.125 0.125
74 1 0.125 0.125 0.125
75 1 0.25 0.125 0.125
76 1 0.375 0.125 0.125
77 1 0.5 0.125 0.125
78 1 0.625 0.125 0.125
79 1 0.75 0.125 0.125
80 1 0.875 0.125 0.125
81 1 1 0.25 0.125
82 1 0.125 0.25 0.125
83 1 0.25 0.25 0.125
84 1 0.375 0.25 0.125
85 1 0.5 0.25 0.125
86 1 0.625 0.25 0.125
87 1 0.75 0.25 0.125
88 1 0.875 0.25 0.125
89 1 2.67049e-10 0.375 0.125
90 1 0.125 0.375 0.125
91 1 0.25 0.375 0.125
92 1 0.375 0.375 0.125
93 1 0.5 0.375 0.125
94 1 0.625 0.375 0.125
95 1 0.75 0.375 0.125
96 1 0.875 0.375 0.125
97 1 1 0.5 0.125
98 1 0.125 0.5 0.125
99 1 0.25 0.5 0.125
100 1 0.375 0.5 0.125
101 1 0.5 0.5 0.125
102 1 0.625 0.5 0.125
103 1 0.75 0.5 0.125
104 1 0.875 0.5 0.125
105 1 1 0.625 0.125
106 1 0.125 0.625 0.125
107 1 0.25 0.625 0.125
108 1 0.375 0.625 0.125
109 1 0.5 0.625 0.125
110 1 0.625 0.625 0.125
111 1 0.75 0.625 0.125
112 1 0.875 0.625 0.125
113 1 1.23288e-10 0.75 0.125
114 1 0.125 0.75 0.125
115 1 0.25 0.75 0.125
116 1 0.375 0.75 0.125
117 1 0.5 0.75 0.125
118 1 0.625 0.75 0.125
119 1 0.75 0.75 0.125
120 1 0.875 0.75 0.125
121 1 4.13332e-10 0.875 0.125
122 1 0.125 0.875 0.125
123 1 0.25 0.875 0.125
124 1 0.375 0.875 0.125
125 1 0.5 0.875 0.125
126 1 0.625 0.875 0.125
127 1 0.75 0.875 0.125
128 1 0.875 0.875 0.125
129 1 1 1.98351e-10 0.25
130 1 0.125 1.98351e-10 0.25
131 1 0.25 1.98351e-10 0.25
132 1 0.375 1.98351e-10 0.25
133 1 0.5 1.98351e-10 0.25
134 1 0.625 1.98351e-10 0.25
135 1 0.75 1.98351e-10 0.25
136 1 0.875 1.98351e-10 0.25
137 1 1 0.125 0.25
138 1 0.125 0.125 0.25
139 1 0.25 0.125 0.25
140 1 0.375 0.125 0.25
141 1 0.5 0.125 0.25
142 1 0.625 0.125 0.25
143 1 0.75 0.125 0.25
144 1 0.875 0.125 0.25
145 1 2.77054e-10 0.25 0.25
146 1 0.125 0.25 0.25
147 1 0.25 0.25 0.25
148 1 0.375 0.25 0.25
149 1 0.5 0.25 0.25
150 1 0.625 0.25 0.25
151 1 0.75 0.25 0.25
152 1 0.875 0.25 0.25
153 1 1 0.375 0.25
154 1 0.125 0.375 0.25
155 1 0.25 0.375 0.25
156 1 0.375 0.375 0.25
157 1 0.5 0.375 0.25
158 1 0.625 0.375 0.25
159 1 0.75 0.375 0.25
160 1 0.875 0.375 0.25
161 1 1 0.5 0.25
162 1 0.125 0.5 0.25
163 1 0.25 0.5 0.25
164 1 0.375 0.5 0.25
165 1 0.5 0.5 0.25
166 1 0.625 0.5 0.25
167 1 0.75 0.5 0.25
168 1 0.875 0.5 0.25
169 1 1.33293e-10 0.625 0.25
170 1 0.125 0.625 0.25
171 1 0.25 0.625 0.25
172 1 0.375 0.625 0.25
173 1 0.5 0.625 0.25
174 1 0.625 0.625 0.25
175 1 0.75 0.625 0.25
176 1 0.875 0.625 0.25
177 1 1.71125e-10 0.75 0.25
178 1 0.125 0.75 0.25
179 1 0.25 0.75 0.25
180 1 0.375 0.75 0.25
181 1 0.5 0.75 0.25
182 1 0.625 0.75 0.25
183 1 0.75 0.75 0.25
184 1 0.875 0.75 0.25
185 1 1 0.875 0.25
186 1 0.125 0.875 0.25
187 1 0.25 0.875 0.25
188 1 0.375 0.875 0.25
189 1 0.5 0.875 0.25
190 1 0.625 0.875 0.25
191 1 0.75 0.875 0.25
192 1 0.875 0.875 0.25
193 1 1 3.89219e-10 0.375
194 1 0.125 3.89219e-10 0.375
195 1 0.25 3.89219e-10 0.375
196 1 0.375 3.89219e-10 0.375
197 1 0.5 3.89219e-10 0.375
198 1 0.625 3.89219e-10 0.375
199 1 0.75 3.89219e-10 0.375
200 1 0.875 3.89219e-10 0.375
201 1 2.13188e-10 0.125 0.375
202 1 0.125 0.125 0.375
203 1 0.25 0.125 0.375
204 1 0.375 0.125 0.375
205 1 0.5 0.125 0.375
206 1 0.625 0.125 0.375
207 1 0.75 0.125 0.375
208 1 0.875 0.125 0.375
209 1 1 0.25 0.375
210 1 0.125 0.25 0.375
211 1 0.25 0.25 0.375
212 1 0.375 0.25 0.375
213 1 0.5 0.25 0.375
214 1 0.625 0.25 0.375
215 1 0.75 0.25 0.375
216 1 0.875 0.25 0.375
217 1 1 0.375 0.375
218 1 0.125 0.375 0.375
219 1 0.25 0.375 0.375
220 1 0.375 0.375 0.375
221 1 0.5 0.375 0.375
222 1 0.625 0.375 0.375
223 1 0.75 0.375 0.375
224 1 0.875 0.375 0.375
225 1 6.94274e-11 0.5 0.375
226 1 0.125 0.5 0.375
227 1 0.25 0.5 0.375
228 1 0.375 0.5 0.375
229 1 0.5 0.5 0.375
230 1 0.625 0.5 0.375
231 1 0.75 0.5 0.375
232 1 0.875 0.5 0.375
233 1 3.59471e-10 0.625 0.375
234 1 0.125 0.625 0.375
235 1 0.25 0.625 0.375
236 1 0.375 0.625 0.375
237 1 0.5 0.625 0.375
238 1 0.625 0.625 0.375
239 1 0.75 0.625 0.375
240 1 0.875 0.625 0.375
241 1 1 0.75 0.375
242 1 0.125 0.75 0.375
243 1 0.25 0.75 0.375
244 1 0.375 0.75 0.375
245 1 0.5 0.75 0.375
246 1 0.625 0.75 0.375
247 1 0.75 0.75 0.375
248 1 0.875 0.75 0.375
249 1 1.804e-10 0.875 0.375
250 1 0.125 0.875 0.375
251 1 0.25 0.875 0.375
252 1 0.375 0.875 0.375
253 1 0.5 0.875 0.375
254 1 0.625 0.875 0.375
255 1 0.75 0.875 0.375
256 1 0.875 0.875 0.375
257 1 4.01534e-10 7.06194e-11 0.5
258 1 0.125 7.06194e-11 0.5
259 1 0.25 7.06194e-11 0.5
260 1 0.375 7.06194e-11 0.5
261 1 0.5 7.06194e-11 0.5
262 1 0.625 7.06194e-11 0.5
263 1 0.75 7.06194e-11 0.5
264 1 0.875 7.06194e-11 0.5
265 1 1 0.125 0.5
266 1 0.125 0.125 0.5
267 1 0.25 0.125 0.5
268 1 0.375 0.125 0.5
269 1 0.5 0.125 0.5
270 1 0.625 0.125 0.5
271 1 0.75 0.125 0.5
272 1 0.875 0.125 0.5
273 1 1 0.25 0.5
274 1 0.125 0.25 0.5
275 1 0.25 0.25 0.5
276 1 0.375 0.25 0.5
277 1 0.5 0.25 0.5
278 1 0.625 0.25 0.5
279 1 0.75 0.25 0.5
280 1 0.875 0.25 0.5
281 1 2.57773e-10 0.375 0.5
282 1 0.125 0.375 0.5
283 1 0.25 0.375 0.5
284 1 0.375 0.375 0.5
285 1 0.5 0.375 0.5
286 1 0.625 0.375 0.5
287 1 0.75 0.375 0.5
288 1 0.875 0.375 0.5
289 1 2.95605e-10 0.5 0.5
290 1 0.125 0.5 0.5
291 1 0.25 0.5 0.5
292 1 0.375 0.5 0.5
293 1 0.5 0.5 0.5
294 1 0.625 0.5 0.5
295 1 0.75 0.5 0.5
296 1 0.875 0.5 0.5
297 1 1 0.625 0.5
298 1 0.125 0.625 0.5
299 1 0.25 0.625 0.5
300 1 0.375 0.625 0.5
301 1 0.5 0.625 0.5
302 1 0.625 0.625 0.5
303 1 0.75 0.625 0.5
304 1 0.875 0.625 0.5
305 1 3.68746e-10 0.75 0.5
306 1 0.125 0.75 0.5
307 1 0.25 0.75 0.5
308 1 0.375 0.75 0.5
309 1 0.5 0.75 0.5
310 1 0.625 0.75 0.5
311 1 0.75 0.75 0.5
312 1 0.875 0.75 0.5
313 1 1.51844e-10 0.875 0.5
314 1 0.125 0.875 0.5
315 1 0.25 0.875 0.5
316 1 0.375 0.875 0.5
317 1 0.5 0.875 0.5
318 1 0.625 0.875 0.5
319 1 0.75 0.875 0.5
320 1 0.875 0.875 0.5
321 1 1 4.0923e-10 0.625
322 1 0.125 4.0923e-10 0.625
323 1 0.25 4.0923e-10 0.625
324 1 0.375 4.0923e-10 0.625
325 1 0.5 4.0923e-10 0.625
326 1 0.625 4.0923e-10 0.625
327 1 0.75 4.0923e-10 0.625
328 1 0.875 4.0923e-10 0.625
329 1 1 0.125 0.625
330 1 0.125 0.125 0.625
331 1 0.25 0.125 0.625
332 1 0.375 0.125 0.625
333 1 0.5 0.125 0.625
334 1 0.625 0.125 0.625
335 1 0.75 0.125 0.625
336 1 0.875 0.125 0.625
337 1 1 0.25 0.625
338 1 0.125 0.25 0.625
339 1 0.25 0.25 0.625
340 1 0.375 0.25 0.625
341 1 0.5 0.25 0.625
342 1 0.625 0.25 0.625
343 1 0.75 0.25 0.625
344 1 0.875 0.25 0.625
345 1 1 0.375 0.625
346 1 0.125 0.375 0.625
347 1 0.25 0.375 0.625
348 1 0.375 0.375 0.625
349 1 0.5 0.375 0.625
350 1 0.625 0.375 0.625
351 1 0.75 0.375 0.625
352 1 0.875 0.375 0.625
353 1 1 0.5 0.625
354 1 0.125 0.5 0.625
355 1 0.25 0.5 0.625
356 1 0.375 0.5 0.625
357 1 0.5 0.5 0.625
358 1 0.625 0.5 0.625
359 1 0.75 0.5 0.625
360 1 0.875 0.5 0.625
361 1 1 0.625 0.625
362 1 0.125 0.625 0.625
363 1 0.25 0.625 0.625
364 1 0.375 0.625 0.625
365 1 0.5 0.625 0.625
366 1 0.625 0.625 0.625
367 1 0.75 0.625 0.625
368 1 0.875 0.625 0.625
369 1 1 0.75 0.625
370 1 0.125 0.75 0.625
371 1 0.25 0.75 0.625
372 1 0.375 0.75 0.625
373 1 0.5 0.75 0.625
374 1 0.625 0.75 0.625
375 1 0.75 0.75 0.625
376 1 0.875 0.75 0.625
377 1 2.13406e-11 0.875 0.625
378 1 0.125 0.875 0.625
379 1 0.25 0.875 0.625
380 1 0.375 0.875 0.625
381 1 0.5 0.875 0.625
382 1 0.625 0.875 0.625
383 1 0.75 0.875 0.625
384 1 0.875 0.875 0.625
385 1 1 9.06298e-11 0.75
386 1 0.125 9.06298e-11 0.75
387 1 0.25 9.06298e-11 0.75
388 1 0.375 9.06298e-11 0.75
389 1 0.5 9.06298e-11 0.75
390 1 0.625 9.06298e-11 0.75
391 1 0.75 9.06298e-11 0.75
392 1 0.875 9.06298e-11 0.75
393 1 2.5572e-11 0.125 0.75
394 1 0.125 0.125 0.75
395 1 0.25 0.125 0.75
396 1 0.375 0.125 0.75
397 1 0.5 0.125 0.75
398 1 0.625 0.125 0.75
399 1 0.75 0.125 0.75
400 1 0.875 0.125 0.75
401 1 6.34037e-11 0.25 0.75
402 1 0.125 0.25 0.75
403 1 0.25 0.25 0.75
404 1 0.375 0.25 0.75
405 1 0.5 0.25 0.75
406 1 0.625 0.25 0.75
407 1 0.75 0.25 0.75
408 1 0.875 0.25 0.75
409 1 1 0.375 0.75
410 1 0.125 0.375 0.75
411 1 0.25 0.375 0.75
412 1 0.375 0.375 0.75
413 1 0.5 0.375 0.75
414 1 0.625 0.375 0.75
415 1 0.75 0.375 0.75
416 1 0.875 0.375 0.75
417 1 1.36545e-10 0.5 0.75
418 1 0.125 0.5 0.75
419 1 0.25 0.5 0.75
420 1 0.375 0.5 0.75
421 1 0.5 0.5 0.75
422 1 0.625 0.5 0.75
423 1 0.75 0.5 0.75
424 1 0.875 0.5 0.75
425 1 1 0.625 0.75
426 1 0.125 0.625 0.75
427 1 0.25 0.625 0.75
428 1 0.375 0.625 0.75
429 1 0.5 0.625 0.75
430 1 0.625 0.625 0.75
431 1 0.75 0.625 0.75
432 1 0.875 0.625 0.75
433 1 1 0.75 0.75
434 1 0.125 0.75 0.75
435 1 0.25 0.75 0.75
436 1 0.375 0.75 0.75
437 1 0.5 0.75 0.75
438 1 0.625 0.75 0.75
439 1 0.75 0.75 0.75
440 1 0.875 0.75 0.75
441 1 1 0.875 0.75
442 1 0.125 0.875 0.75
443 1 0.25 0.875 0.75
444 1 0.375 0.875 0.75
445 1 0.5 0.875 0.75
446 1 0.625 0.875 0.75
447 1 0.75 0.875 0.75
448 1 0.875 0.875 0.75
449 1 1 2.81498e-10 0.875
450 1 0.125 2.81498e-10 0.875
451 1 0.25 2.81498e-10 0.875
452 1 0.375 2.81498e-10 0.875
453 1 0.5 2.81498e-10 0.875
454 1 0.625 2.81498e-10 0.875
455 1 0.75 2.81498e-10 0.875
456 1 0.875 2.81498e-10 0.875
457 1 1 0.125 0.875
458 1 0.125 0.125 0.875
459 1 0.25 0.125 0.875
460 1 0.375 0.125 0.875
461 1 0.5 0.125 0.875
462 1 0.625 0.125 0.875
463 1 0.75 0.125 0.875
464 1 0.875 0.125 0.875
465 1 1 0.25 0.875
466 1 0.125 0.25 0.875
467 1 0.25 0.25 0.875
468 1 0.375 0.25 0.875
469 1 0.5 0.25 0.875
470 1 0.625 0.25 0.875
471 1 0.75 0.25 0.875
472 1 0.875 0.25 0.875
473 1 7.26793e-11 0.375 0.875
474 1 0.125 0.375 0.875
475 1 0.25 0.375 0.875
476 1 0.375 0.375 0.875
477 1 0.5 0.375 0.875
478 1 0.625 0.375 0.875
479 1 0.75 0.375 0.875
480 1 0.875 0.375 0.875
481 1 1 0.5 0.875
482 1 0.125 0.5 0.875
483 1 0.25 0.5 0.875
484 1 0.375 0.5 0.875
485 1 0.5 0.5 0.875
486 1 0.625 0.5 0.875
487 1 0.75 0.5 0.875
488 1 0.875 0.5 0.875
489 1 1.45821e-10 0.625 0.875
490 1 0.125 0.625 0.875
491 1 0.25 0.625 0.875
492 1 0.375 0.625 0.875
493 1 0.5 0.625 0.875
494 1 0.625 0.625 0.875
495 1 0.75 0.625 0.875
496 1 0.875 0.625 0.875
497 1 1 0.75 0.875
498 1 0.125 0.75 0.875
499 1 0.25 0.75 0.875
500 1 0.375 0.75 0.875
501 1 0.5 0.75 0.875
502 1 0.625 0.75 0.875
503 1 0.75 0.75 0.875
504 1 0.875 0.75 0.875
505 1 1 0.875 0.875
506 1 0.125 0.875 0.875
507 1 0.25 0.875 0.875
508 1 0.375 0.875 0.875
509 1 0.5 0.875 0.875
510 1 0.625 0.875 0.875
511 1 0.75 0.875 0.875
512 1 0.875 0.875 0.875
ITEM: TIMESTEP
50000
ITEM: NUMBER OF ATOMS
512
ITEM: BOX BOUNDS xy xz yz pp pp pp
-1.0079222600098880e-01 4.6085341167915523e+01 1.1546533345956915e+01
-8.7288628226248832e-02 2.6578287927043366e+01 1.1546533345956915e+01
-8.2296507872133162e-02 1.8773113487871804e+01 6.6663941388173997e+00
ITEM: ATOMS id type xs ys zs
1 1 0.00461174 -0.00314062 0.00170016
2 1 0.128079 0.00219562 -0.00353336
3 1 0.251212 0.00377954 -0.00415054
4 1 0.378806 -0.00209927 0.00115083
5 1 0.502862 -0.00530641 0.00296446
6 1 0.639097 -0.0103111 -0.00566924
7 1 0.752458 -0.00794912 0.00249454
8 1 0.87749 -0.00158581 0.0021631
9 1 1.00517 0.125289 -0.00677927
10 1 0.12314 0.127445 -0.00219411
11 1 0.257859 0.124501 -0.00451241
12 1 0.38472 0.122469 -0.00481115
13 1 0.516462 0.114977 -0.00943238
14 1 0.634595 0.119055 -0.005417
15 1 0.754117 0.121047 0.00266113
16 1 0.884414 0.126368 -0.00476705
17 1 0.997393 0.252407 -0.0067052
18 1 0.123953 0.246458 0.00685758
19 1 0.247174 0.250314 0.00283381
20 1 0.373401 0.251894 -0.00499428
21 1 0.500981 0.239496 0.00475161
22 1 0.622257 0.246368 0.00365109
23 1 0.751927 0.2488 -0.000376977
24 1 0.874027 0.248571 -0.00186667
25 1 0.995608 0.376603 0.002005
26 1 0.124011 0.373407 0.00102838
27 1 0.246232 0.373361 -0.00169916
28 1 0.375498 0.372786 0.00811228
29 1 0.497836 0.380155 -0.0051913
30 1 0.623411 0.378475 0.00133574
31 1 0.749976 0.382668 -0.00835247
32 1 0.873548 0.374899 -0.00170496
33 1 0.00182795 0.495182 0.00633945
34 1 0.124191 0.499687 0.00300331
35 1 0.245988 0.504416 0.00556925
36 1 0.374871 0.505974 0.00508641
37 1 0.499153 0.501901 0.00790694
38 1 0.627192 0.50427 -0.000397323
39 1 0.747135 0.504232 -0.00419632
40 1 0.878432 0.5039 -0.00489652
41 1 0.999416 0.625182 0.000986536
42 1 0.125099 0.624416 0.00383268
43 1 0.248901 0.629335 0.0033505
44 1 0.377729 0.625252 0.0050521
45 1 0.500297 0.624183 0.00164189
46 1 0.621367 0.624991 0.00146868
47 1 0.74767 0.629538 -0.0025356
48 1 0.872617 0.629266 -0.00289839
49 1 0.998868 0.750596 0.00655716
50 1 0.126015 0.744968 0.00201557
51 1 0.249538 0.749225 0.00435803
52 1 0.375747 0.74746 0.00388662
53 1 0.504047 0.743062 0.00238452
54 1 0.622605 0.753164 0.00447678
55 1 0.755394 0.747204 0.00244406
56 1 0.879384 0.745825 0.00572278
57 1 0.00270367 0.874004 -0.00585657
58 1 0.130148 0.868354 -0.00348697
59 1 0.248671 0.877038 0.00236847
60 1 0.377391 0.866213 0.00424342
61 1 0.498096 0.880237 0.000344167
62 1 0.622486 0.873155 0.00411116
63 1 0.754137 0.865438 0.00349627
64 1 0.879917 0.875895 -0.00302165
65 1 1.00491 -0.000677691 0.123153
66 1 0.126897 -0.000129468 0.127913
67 1 0.246054 0.00666756 0.125581
68 1 0.377679 -0.00106886 0.126263
69 1 0.502655 -0.00258531 0.123551
70 1 0.623326 -0.00317661 0.123614
71 1 0.758901 -0.00655398 0.121829
72 1 0.880447 0.00250762 0.123561
73 1 0.00616164 0.120523 0.116177
74 1 0.119965 0.126735 0.125659
75 1 0.247688 0.127064 0.125719
76 1 0.378486 0.126535 0.118274
77 1 0.509113 0.119085 0.119097
78 1 0.63604 0.123783 0.125012
79 1 0.759656 0.123629 0.122935
80 1 0.877576 0.131283 0.119694
81 1 0.995124 0.251115 0.12514
82 1 0.122422 0.253265 0.126536
83 1 0.247792 0.253318 0.124232
84 1 0.374631 0.245133 0.125336
85 1 0.498701 0.259558 0.120089
86 1 0.61788 0.255951 0.126631
87 1 0.754385 0.248847 0.119947
88 1 0.884814 0.245943 0.123824
89 1 0.00156057 0.366274 0.126702
90 1 0.12038 0.372731 0.132209
91 1 0.253041 0.383271 0.117092
92 1 0.374678 0.383915 0.122639
93 1 0.500956 0.377943 0.122797
94 1 0.629068 0.376537 0.122152
95 1 0.756299 0.370184 0.117401
96 1 0.870221 0.37923 0.121531
97 1 0.999565 0.488796 0.130456
98 1 0.125639 0.499414 0.130056
99 1 0.249519 0.505319 0.124362
100 1 0.362819 0.503212 0.141469
101 1 0.503186 0.500676 0.127287
102 1 0.63227 0.497772 0.120414
103 1 0.746702 0.503131 0.122111
104 1 0.874385 0.497544 0.124027
105 1 1.00519 0.620538 0.122786
106 1 0.123729 0.626201 0.128824
107 1 0.241187 0.625609 0.146418
108 1 0.37143 0.619534 0.135822
109 1 0.502911 0.625759 0.128207
110 1 0.618993 0.630022 0.127623
111 1 0.749715 0.617826 0.125187
112 1 0.881877 0.621279 0.125461
113 1 0.00324343 0.748284 0.127185
114 1 0.124618 0.750105 0.125459
115 1 0.249146 0.747262 0.130713
116 1 0.378524 0.74428 0.128834
117 1 0.499609 0.753651 0.127471
118 1 0.629157 0.747927 0.126421
119 1 0.751233 0.749448 0.128076
120 1 0.876172 0.754591 0.121556
121 1 0.00803192 0.872126 0.114259
122 1 0.124429 0.864027 0.130523
123 1 0.252668 0.873192 0.123419
124 1 0.373918 0.87527 0.128161
125 1 0.502928 0.874332 0.126794
126 1 0.624636 0.870172 0.13015
127 1 0.752232 0.873465 0.128353
128 1 0.878011 0.873173 0.126278
129 1 1.00121 -0.0127371 0.254797
130 1 0.125712 -0.00695273 0.253559
131 1 0.254677 -0.00343117 0.249152
132 1 0.373011 0.0125775 0.241375
133 1 0.498694 0.00136081 0.252664
134 1 0.622451 0.0053965 0.248674
135 1 0.746729 0.00362727 0.25119
136 1 0.877849 -0.00215622 0.247419
137 1 0.995475 0.121189 0.24655
138 1 0.125737 0.118246 0.244716
139 1 0.249407 0.127775 0.250906
140 1 0.3812 0.12405 0.247344
141 1 0.508967 0.135425 0.241048
142 1 0.629611 0.13342 0.245392
143 1 0.757898 0.121088 0.24527
144 1 0.875813 0.122152 0.246982
145 1 0.00164996 0.245176 0.246727
146 1 0.130189 0.235403 0.257218
147 1 0.25037 0.251642 0.243792
148 1 0.376329 0.25181 0.243068
149 1 0.500847 0.253083 0.253148
150 1 0.629695 0.25722 0.243481
151 1 0.754349 0.251597 0.239484
152 1 0.875391 0.249653 0.250417
153 1 0.999875 0.361146 0.255001
154 1 0.129269 0.370694 0.245891
155 1 0.249841 0.375361 0.249264
156 1 0.375623 0.379292 0.248397
157 1 0.500281 0.376948 0.25063
158 1 0.632372 0.37686 0.24873
159 1 0.753786 0.378585 0.240885
160 1 0.872559 0.374439 0.247529
161 1 0.998298 0.494265 0.24998
162 1 0.119622 0.49501 0.262027
163 1 0.238028 0.498731 0.259526
164 1 0.376899 0.497168 0.255702
165 1 0.505245 0.497732 0.246547
166 1 0.625244 0.50317 0.245386
167 1 0.751643 0.505547 0.248338
168 1 0.873929 0.491694 0.253108
169 1 -0.00163882 0.62147 0.252762
170 1 0.115979 0.61959 0.26127
171 1 0.24803 0.621054 0.263115
172 1 0.376974 0.624989 0.254918
173 1 0.500099 0.628141 0.253719
174 1 0.623019 0.62434 0.253735
175 1 0.755912 0.627186 0.237299
176 1 0.879333 0.617806 0.24936
177 1 -0.00451353 0.74777 0.253598
178 1 0.120693 0.742484 0.255898
179 1 0.250327 0.750851 0.253554
180 1 0.378118 0.753556 0.252805
181 1 0.498967 0.749855 0.253968
182 1 0.627134 0.749429 0.250162
183 1 0.759741 0.744104 0.247405
184 1 0.877607 0.748503 0.247997
185 1 0.998936 0.867127 0.250807
186 1 0.128015 0.873296 0.246698
187 1 0.253982 0.871163 0.246796
188 1 0.378325 0.875 0.253788
189 1 0.499197 0.879201 0.251135
190 1 0.628189 0.878709 0.247174
191 1 0.748708 0.876785 0.253593
192 1 0.881366 0.873244 0.240463
193 1 1.00128 -0.000320286 0.375363
194 1 0.12329 -0.00633315 0.376176
195 1 0.244907 -0.000121767 0.377639
196 1 0.373826 -0.00220641 0.37267
197 1 0.490917 0.00581846 0.377172
198 1 0.614852 0.000494034 0.377849
199 1 0.741534 0.00325282 0.380765
200 1 0.872372 -0.00131207 0.371937
201 1 -0.000360584 0.129336 0.367803
202 1 0.127827 0.118726 0.379183
203 1 0.259533 0.126605 0.366922
204 1 0.371849 0.137299 0.36564
205 1 0.496904 0.127094 0.373081
206 1 0.628491 0.127133 0.364026
207 1 0.747818 0.126756 0.372642
208 1 0.875143 0.119908 0.378969
209 1 1.00158 0.238866 0.379411
210 1 0.126288 0.252231 0.371294
211 1 0.241456 0.255459 0.370782
212 1 0.36716 0.261149 0.369688
213 1 0.504808 0.249371 0.37113
214 1 0.626217 0.250456 0.368888
215 1 0.75216 0.245458 0.371132
216 1 0.872877 0.251704 0.364555
217 1 1.00385 0.377825 0.368908
218 1 0.12627 0.368962 0.377368
219 1 0.246411 0.383134 0.379172
220 1 0.377504 0.370285 0.377388
221 1 0.506283 0.373884 0.374603
222 1 0.628296 0.377773 0.371849
223 1 0.754675 0.375968 0.36934
224 1 0.881928 0.369426 0.376009
225 1 -0.0076014 0.499032 0.375378
226 1 0.111276 0.493619 0.390385
227 1 0.249552 0.502041 0.380676
228 1 0.379399 0.501243 0.371787
229 1 0.504831 0.497737 0.37066
230 1 0.628255 0.501766 0.371729
231 1 0.751905 0.502473 0.37015
232 1 0.87044 0.495595 0.378253
233 1 -0.00731691 0.626745 0.378115
234 1 0.119664 0.630063 0.378443
235 1 0.25564 0.630279 0.374225
236 1 0.370982 0.629868 0.379477
237 1 0.500745 0.625208 0.380918
238 1 0.630512 0.628933 0.368732
239 1 0.752121 0.627449 0.373802
240 1 0.86848 0.630889 0.375439
241 1 0.996843 0.749685 0.377447
242 1 0.123417 0.744747 0.380078
243 1 0.250362 0.756114 0.374533
244 1 0.369058 0.760741 0.380382
245 1 0.505498 0.756654 0.365688
246 1 0.637028 0.753001 0.363723
247 1 0.744281 0.74998 0.382025
248 1 0.868181 0.755834 0.372143
249 1 -0.00383291 0.869815 0.379558
250 1 0.122353 0.870236 0.377152
251 1 0.250768 0.87547 0.373069
252 1 0.375712 0.882495 0.372362
253 1 0.503779 0.877032 0.377231
254 1 0.625818 0.872512 0.371646
255 1 0.751153 0.874988 0.373066
256 1 0.873436 0.878524 0.369786
257 1 -0.00164656 0.00467597 0.499121
258 1 0.123854 -0.00297432 0.503687
259 1 0.256009 0.00295707 0.490739
260 1 0.370295 0.00840164 0.499046
261 1 0.496318 0.00127798 0.504015
262 1 0.616185 0.000786021 0.503259
263 1 0.744426 0.00244356 0.50231
264 1 0.874752 -0.000535916 0.503903
265 1 0.996365 0.124901 0.506018
266 1 0.121648 0.124908 0.499289
267 1 0.242327 0.134219 0.492101
268 1 0.372683 0.133148 0.489648
269 1 0.500532 0.129714 0.49315
270 1 0.621181 0.128501 0.492999
271 1 0.750892 0.124059 0.50074
272 1 0.871567 0.126948 0.497276
273 1 0.99745 0.253237 0.49718
274 1 0.119207 0.249511 0.501845
275 1 0.247767 0.255356 0.502062
276 1 0.379338 0.249579 0.496236
277 1 0.496656 0.255514 0.500748
278 1 0.627997 0.251836 0.490824
279 1 0.747599 0.252204 0.492582
280 1 0.874451 0.250492 0.490777
281 1 -0.00314594 0.372493 0.504901
282 1 0.124316 0.371124 0.507931
283 1 0.246278 0.373534 0.511719
284 1 0.376139 0.381566 0.498054
285 1 0.508155 0.376148 0.497355
286 1 0.630379 0.368842 0.502894
287 1 0.750685 0.37773 0.491845
288 1 0.872051 0.37738 0.496181
289 1 -0.00566998 0.496899 0.502472
290 1 0.128093 0.500909 0.4975
291 1 0.251523 0.494251 0.505918
292 1 0.379981 0.502207 0.497083
293 1 0.507199 0.493975 0.496164
294 1 0.632183 0.500053 0.495839
295 1 0.753384 0.500824 0.502749
296 1 0.87589 0.496816 0.499191
297 1 0.991593 0.619843 0.498989
298 1 0.126353 0.625935 0.501524
299 1 0.242475 0.631295 0.50318
300 1 0.374153 0.626488 0.500894
301 1 0.499126 0.627051 0.498649
302 1 0.630784 0.620422 0.49858
303 1 0.750591 0.621473 0.504758
304 1 0.871824 0.619226 0.505329
305 1 -0.00620041 0.74525 0.507514
306 1 0.122369 0.74957 0.50146
307 1 0.248126 0.751097 0.500234
308 1 0.375182 0.749786 0.503822
309 1 0.510169 0.74555 0.490707
310 1 0.622054 0.74278 0.503912
311 1 0.748463 0.745842 0.502249
312 1 0.874004 0.751482 0.497137
313 1 -0.00435943 0.86927 0.501723
314 1 0.122056 0.8732 0.500367
315 1 0.247815 0.876827 0.495984
316 1 0.377446 0.874243 0.505588
317 1 0.502427 0.877906 0.496353
318 1 0.625685 0.874103 0.494042
319 1 0.74105 0.876404 0.506294
320 1 0.865566 0.880344 0.498478
321 1 1.00136 0.00270202 0.61867
322 1 0.119549 0.00202542 0.623041
323 1 0.243336 0.00342565 0.625369
324 1 0.373149 -0.00392625 0.626366
325 1 0.495046 0.00145777 0.625886
326 1 0.620532 0.00395253 0.622823
327 1 0.74194 0.00125893 0.626682
328 1 0.874383 -0.00106918 0.624928
329 1 0.993149 0.128808 0.627486
330 1 0.121691 0.123526 0.628634
331 1 0.253684 0.124325 0.624326
332 1 0.377619 0.121677 0.619083
333 1 0.498178 0.130927 0.622238
334 1 0.620302 0.134849 0.622052
335 1 0.751574 0.119181 0.630046
336 1 0.87181 0.12632 0.624177
337 1 0.996906 0.245805 0.630408
338 1 0.121246 0.244808 0.631349
339 1 0.243759 0.250647 0.626998
340 1 0.374185 0.250803 0.622129
341 1 0.496663 0.255033 0.629306
342 1 0.629403 0.242844 0.636697
343 1 0.752127 0.25065 0.615599
344 1 0.872355 0.247429 0.622774
345 1 0.998101 0.373264 0.624782
346 1 0.122838 0.381907 0.629115
347 1 0.249756 0.375687 0.630759
348 1 0.367012 0.372299 0.636366
349 1 0.503362 0.375267 0.627171
350 1 0.625686 0.372745 0.623758
351 1 0.751879 0.371636 0.619337
352 1 0.869714 0.369113 0.624733
353 1 1.00049 0.500067 0.626238
354 1 0.129731 0.505356 0.61477
355 1 0.250701 0.504577 0.622613
356 1 0.375774 0.499647 0.622609
357 1 0.504645 0.501551 0.620315
358 1 0.632904 0.493241 0.621555
359 1 0.749436 0.500161 0.630313
360 1 0.878078 0.497156 0.626282
361 1 0.993104 0.629349 0.622622
362 1 0.124838 0.627588 0.625483
363 1 0.253393 0.627235 0.622829
364 1 0.381389 0.622905 0.626638
365 1 0.50732 0.619569 0.625628
366 1 0.624348 0.618923 0.62807
367 1 0.745091 0.622169 0.633087
368 1 0.868959 0.62862 0.628084
369 1 1.00466 0.744334 0.624447
370 1 0.127454 0.74934 0.625254
371 1 0.252664 0.750648 0.621085
372 1 0.384858 0.744667 0.618672
373 1 0.50239 0.747507 0.623556
374 1 0.620574 0.752212 0.625563
375 1 0.743605 0.7471 0.627213
376 1 0.871796 0.752811 0.622677
377 1 -0.00549583 0.878618 0.629263
378 1 0.122277 0.874741 0.624195
379 1 0.248656 0.87391 0.620635
380 1 0.374994 0.878262 0.622331
381 1 0.496314 0.880844 0.624607
382 1 0.621539 0.879309 0.624764
383 1 0.751462 0.873622 0.626413
384 1 0.875893 0.87169 0.622891
385 1 0.994491 0.00366223 0.746423
386 1 0.120137 -0.000513821 0.751872
387 1 0.247235 -0.00123892 0.744626
388 1 0.367287 0.00590905 0.747271
389 1 0.489107 0.00934354 0.751492
390 1 0.620243 -0.000960145 0.751915
391 1 0.743098 -0.00061862 0.753441
392 1 0.874036 0.000665691 0.745391
393 1 -0.00192017 0.125257 0.75372
394 1 0.124428 0.121599 0.754976
395 1 0.246317 0.128548 0.747613
396 1 0.370677 0.126493 0.749096
397 1 0.502629 0.126658 0.746867
398 1 0.630439 0.12104 0.74854
399 1 0.751572 0.127415 0.747618
400 1 0.873441 0.121671 0.749557
401 1 9.18704e-05 0.253232 0.752326
402 1 0.126656 0.246978 0.756312
403 1 0.255834 0.246554 0.749704
404 1 0.373644 0.247021 0.757344
405 1 0.498928 0.255734 0.749975
406 1 0.626193 0.251558 0.754318
407 1 0.75389 0.242897 0.751862
408 1 0.879467 0.241777 0.752276
409 1 1.00391 0.379885 0.747202
410 1 0.125501 0.378899 0.752669
411 1 0.245474 0.376595 0.751566
412 1 0.379875 0.375574 0.753164
413 1 0.506406 0.375151 0.756133
414 1 0.632434 0.375229 0.744314
415 1 0.754613 0.363937 0.754189
416 1 0.877938 0.375064 0.748259
417 1 -0.00117093 0.510747 0.742466
418 1 0.126043 0.495417 0.749857
419 1 0.247569 0.508556 0.747997
420 1 0.380295 0.499125 0.744398
421 1 0.500328 0.498602 0.755017
422 1 0.628876 0.496377 0.753317
423 1 0.748253 0.500355 0.752921
424 1 0.867576 0.50716 0.749143
425 1 1.00375 0.623377 0.755204
426 1 0.123114 0.627387 0.751725
427 1 0.252238 0.632954 0.742554
428 1 0.38163 0.624502 0.752096
429 1 0.499649 0.62778 0.747141
430 1 0.623171 0.626272 0.753487
431 1 0.742924 0.623164 0.755699
432 1 0.871705 0.62749 0.750447
433 1 1.00308 0.749554 0.748102
434 1 0.123962 0.75104 0.749253
435 1 0.254067 0.749054 0.747617
436 1 0.375373 0.753069 0.743622
437 1 0.497212 0.754576 0.749995
438 1 0.621051 0.753606 0.752953
439 1 0.741876 0.754218 0.753495
440 1 0.868228 0.749426 0.749794
441 1 1.00028 0.877204 0.748485
442 1 0.126925 0.872657 0.752209
443 1 0.248177 0.874504 0.741636
444 1 0.363532 0.869786 0.75763
445 1 0.496343 0.875807 0.752222
446 1 0.611861 0.886331 0.744939
447 1 0.740871 0.875551 0.757973
448 1 0.874343 0.872386 0.748904
449 1 0.99941 -0.00546386 0.875124
450 1 0.123774 -0.00615151 0.87806
451 1 0.255465 0.00794235 0.862546
452 1 0.376367 0.00394929 0.873343
453 1 0.499922 0.00142992 0.876273
454 1 0.623347 0.00458615 0.872859
455 1 0.755437 -0.00015992 0.869707
456 1 0.877724 -0.00743426 0.877115
457 1 1.00306 0.116488 0.875937
458 1 0.130564 0.12042 0.870962
459 1 0.252747 0.120874 0.878987
460 1 0.375473 0.122434 0.87727
461 1 0.497023 0.131546 0.866336
462 1 0.628931 0.121193 0.871001
463 1 0.756437 0.11714 0.878177
464 1 0.877841 0.122336 0.877171
465 1 0.999138 0.245472 0.878348
466 1 0.131391 0.24528 0.873781
467 1 0.249007 0.252845 0.876317
468 1 0.369399 0.256142 0.874593
469 1 0.495708 0.250739 0.876962
470 1 0.629881 0.25135 0.875456
471 1 0.74766 0.248244 0.881388
472 1 0.871768 0.24778 0.876306
473 1 -0.00758726 0.376194 0.881659
474 1 0.12368 0.36917 0.879418
475 1 0.250345 0.385317 0.863695
476 1 0.37142 0.384961 0.881876
477 1 0.499331 0.371844 0.879516
478 1 0.618955 0.371732 0.881304
479 1 0.749899 0.373803 0.88055
480 1 0.880834 0.378857 0.866312
481 1 0.996952 0.49891 0.880262
482 1 0.1177 0.494277 0.878732
483 1 0.246039 0.504182 0.873629
484 1 0.370774 0.501748 0.879794
485 1 0.494524 0.507286 0.877764
486 1 0.621506 0.501996 0.872141
487 1 0.743893 0.501963 0.87483
488 1 0.875736 0.503985 0.869773
489 1 0.00102417 0.623983 0.877094
490 1 0.125239 0.625453 0.873345
491 1 0.252612 0.625742 0.873393
492 1 0.374897 0.62322 0.88244
493 1 0.505273 0.631785 0.868448
494 1 0.612731 0.637716 0.878056
495 1 0.747451 0.624836 0.873868
496 1 0.869713 0.625658 0.879391
497 1 1.0018 0.749649 0.875232
498 1 0.129097 0.747577 0.874972
499 1 0.254183 0.749196 0.875302
500 1 0.373183 0.745135 0.880506
501 1 0.492953 0.758967 0.876508
502 1 0.618272 0.752299 0.877037
503 1 0.747982 0.750194 0.871185
504 1 0.881203 0.747722 0.869172
505 1 1.0018 0.874254 0.867823
506 1 0.134452 0.872962 0.868161
507 1 0.257165 0.874292 0.878496
508 1 0.377701 0.886666 0.871457