FCC(001) cell with dimension 8 x 8 x 8

512  atoms
  1  atom types

     0.00000000     21.93904065 xlo xhi
     0.00000000     18.99976654 ylo yhi
     0.00000000     17.91315167 zlo zhi
    10.96952032     10.96952032      6.33325551 xy xz yz

Atoms

  1  1   0.00000000     0.0000000000     0.00000000
  2  1   2.74238008     0.0000000000     0.00000000
  3  1   5.48476017     0.0000000000     0.00000000
  4  1   8.22714024     0.0000000000     0.00000000
  5  1   10.96952033     0.0000000000     0.00000000
  6  1   13.71190041     0.0000000000     0.00000000
  7  1   16.45428049     0.0000000000     0.00000000
  8  1   19.19666058     0.0000000000     0.00000000
  9  1   1.37119004     2.3749708236     0.00000000
 10  1   4.11357012     2.3749708236     0.00000000
 11  1   6.85595020     2.3749708236     0.00000000
 12  1   9.59833029     2.3749708236     0.00000000
 13  1   12.34071037     2.3749708236     0.00000000
 14  1   15.08309045     2.3749708236     0.00000000
 15  1   17.82547053     2.3749708236     0.00000000
 16  1   20.56785061     2.3749708236     0.00000000
 17  1   2.74238008     4.7499416471     0.00000000
 18  1   5.48476017     4.7499416471     0.00000000
 19  1   8.22714024     4.7499416471     0.00000000
 20  1   10.96952033     4.7499416471     0.00000000
 21  1   13.71190041     4.7499416471     0.00000000
 22  1   16.45428049     4.7499416471     0.00000000
 23  1   19.19666058     4.7499416471     0.00000000
 24  1   21.93904065     4.7499416471     0.00000000
 25  1   4.11357012     7.1249124607     0.00000000
 26  1   6.85595020     7.1249124607     0.00000000
 27  1   9.59833029     7.1249124607     0.00000000
 28  1   12.34071037     7.1249124607     0.00000000
 29  1   15.08309045     7.1249124607     0.00000000
 30  1   17.82547053     7.1249124607     0.00000000
 31  1   20.56785061     7.1249124607     0.00000000
 32  1   23.31023070     7.1249124607     0.00000000
 33  1   5.48476017     9.4998832742     0.00000000
 34  1   8.22714024     9.4998832742     0.00000000
 35  1   10.96952033     9.4998832742     0.00000000
 36  1   13.71190041     9.4998832742     0.00000000
 37  1   16.45428049     9.4998832742     0.00000000
 38  1   19.19666058     9.4998832742     0.00000000
 39  1   21.93904065     9.4998832742     0.00000000
 40  1   24.68142074     9.4998832742     0.00000000
 41  1   6.85595020     11.8748540978     0.00000000
 42  1   9.59833029     11.8748540978     0.00000000
 43  1   12.34071037     11.8748540978     0.00000000
 44  1   15.08309045     11.8748540978     0.00000000
 45  1   17.82547053     11.8748540978     0.00000000
 46  1   20.56785061     11.8748540978     0.00000000
 47  1   23.31023070     11.8748540978     0.00000000
 48  1   26.05261078     11.8748540978     0.00000000
 49  1   8.22714024     14.2498249113     0.00000000
 50  1   10.96952033     14.2498249113     0.00000000
 51  1   13.71190041     14.2498249113     0.00000000
 52  1   16.45428049     14.2498249113     0.00000000
 53  1   19.19666058     14.2498249113     0.00000000
 54  1   21.93904065     14.2498249113     0.00000000
 55  1   24.68142074     14.2498249113     0.00000000
 56  1   27.42380082     14.2498249113     0.00000000
 57  1   9.59833029     16.6247957349     0.00000000
 58  1   12.34071037     16.6247957349     0.00000000
 59  1   15.08309045     16.6247957349     0.00000000
 60  1   17.82547053     16.6247957349     0.00000000
 61  1   20.56785061     16.6247957349     0.00000000
 62  1   23.31023070     16.6247957349     0.00000000
 63  1   26.05261078     16.6247957349     0.00000000
 64  1   28.79499086     16.6247957349     0.00000000
 65  1   1.37119004     0.7916569479     2.23914396
 66  1   4.11357012     0.7916569479     2.23914396
 67  1   6.85595020     0.7916569479     2.23914396
 68  1   9.59833029     0.7916569479     2.23914396
 69  1   12.34071037     0.7916569479     2.23914396
 70  1   15.08309045     0.7916569479     2.23914396
 71  1   17.82547053     0.7916569479     2.23914396
 72  1   20.56785061     0.7916569479     2.23914396
 73  1   2.74238008     3.1666277614     2.23914396
 74  1   5.48476017     3.1666277614     2.23914396
 75  1   8.22714024     3.1666277614     2.23914396
 76  1   10.96952033     3.1666277614     2.23914396
 77  1   13.71190041     3.1666277614     2.23914396
 78  1   16.45428049     3.1666277614     2.23914396
 79  1   19.19666058     3.1666277614     2.23914396
 80  1   21.93904065     3.1666277614     2.23914396
 81  1   4.11357012     5.5415985850     2.23914396
 82  1   6.85595020     5.5415985850     2.23914396
 83  1   9.59833029     5.5415985850     2.23914396
 84  1   12.34071037     5.5415985850     2.23914396
 85  1   15.08309045     5.5415985850     2.23914396
 86  1   17.82547053     5.5415985850     2.23914396
 87  1   20.56785061     5.5415985850     2.23914396
 88  1   23.31023070     5.5415985850     2.23914396
 89  1   5.48476017     7.9165693985     2.23914396
 90  1   8.22714024     7.9165693985     2.23914396
 91  1   10.96952033     7.9165693985     2.23914396
 92  1   13.71190041     7.9165693985     2.23914396
 93  1   16.45428049     7.9165693985     2.23914396
 94  1   19.19666058     7.9165693985     2.23914396
 95  1   21.93904065     7.9165693985     2.23914396
 96  1   24.68142074     7.9165693985     2.23914396
 97  1   6.85595020     10.2915402221     2.23914396
 98  1   9.59833029     10.2915402221     2.23914396
 99  1   12.34071037     10.2915402221     2.23914396
100  1   15.08309045     10.2915402221     2.23914396
101  1   17.82547053     10.2915402221     2.23914396
102  1   20.56785061     10.2915402221     2.23914396
103  1   23.31023070     10.2915402221     2.23914396
104  1   26.05261078     10.2915402221     2.23914396
105  1   8.22714024     12.6665110356     2.23914396
106  1   10.96952033     12.6665110356     2.23914396
107  1   13.71190041     12.6665110356     2.23914396
108  1   16.45428049     12.6665110356     2.23914396
109  1   19.19666058     12.6665110356     2.23914396
110  1   21.93904065     12.6665110356     2.23914396
111  1   24.68142074     12.6665110356     2.23914396
112  1   27.42380082     12.6665110356     2.23914396
113  1   9.59833029     15.0414818592     2.23914396
114  1   12.34071037     15.0414818592     2.23914396
115  1   15.08309045     15.0414818592     2.23914396
116  1   17.82547053     15.0414818592     2.23914396
117  1   20.56785061     15.0414818592     2.23914396
118  1   23.31023070     15.0414818592     2.23914396
119  1   26.05261078     15.0414818592     2.23914396
120  1   28.79499086     15.0414818592     2.23914396
121  1   10.96952033     17.4164526627     2.23914396
122  1   13.71190041     17.4164526627     2.23914396
123  1   16.45428049     17.4164526627     2.23914396
124  1   19.19666058     17.4164526627     2.23914396
125  1   21.93904065     17.4164526627     2.23914396
126  1   24.68142074     17.4164526627     2.23914396
127  1   27.42380082     17.4164526627     2.23914396
128  1   30.16618090     17.4164526627     2.23914396
129  1   2.74238008     1.5833138857     4.47828793
130  1   5.48476017     1.5833138857     4.47828793
131  1   8.22714024     1.5833138857     4.47828793
132  1   10.96952033     1.5833138857     4.47828793
133  1   13.71190041     1.5833138857     4.47828793
134  1   16.45428049     1.5833138857     4.47828793
135  1   19.19666058     1.5833138857     4.47828793
136  1   21.93904065     1.5833138857     4.47828793
137  1   4.11357012     3.9582847093     4.47828793
138  1   6.85595020     3.9582847093     4.47828793
139  1   9.59833029     3.9582847093     4.47828793
140  1   12.34071037     3.9582847093     4.47828793
141  1   15.08309045     3.9582847093     4.47828793
142  1   17.82547053     3.9582847093     4.47828793
143  1   20.56785061     3.9582847093     4.47828793
144  1   23.31023070     3.9582847093     4.47828793
145  1   5.48476017     6.3332555128     4.47828793
146  1   8.22714024     6.3332555128     4.47828793
147  1   10.96952033     6.3332555128     4.47828793
148  1   13.71190041     6.3332555128     4.47828793
149  1   16.45428049     6.3332555128     4.47828793
150  1   19.19666058     6.3332555128     4.47828793
151  1   21.93904065     6.3332555128     4.47828793
152  1   24.68142074     6.3332555128     4.47828793
153  1   6.85595020     8.7082263464     4.47828793
154  1   9.59833029     8.7082263464     4.47828793
155  1   12.34071037     8.7082263464     4.47828793
156  1   15.08309045     8.7082263464     4.47828793
157  1   17.82547053     8.7082263464     4.47828793
158  1   20.56785061     8.7082263464     4.47828793
159  1   23.31023070     8.7082263464     4.47828793
160  1   26.05261078     8.7082263464     4.47828793
161  1   8.22714024     11.0831971599     4.47828793
162  1   10.96952033     11.0831971599     4.47828793
163  1   13.71190041     11.0831971599     4.47828793
164  1   16.45428049     11.0831971599     4.47828793
165  1   19.19666058     11.0831971599     4.47828793
166  1   21.93904065     11.0831971599     4.47828793
167  1   24.68142074     11.0831971599     4.47828793
168  1   27.42380082     11.0831971599     4.47828793
169  1   9.59833029     13.4581679735     4.47828793
170  1   12.34071037     13.4581679735     4.47828793
171  1   15.08309045     13.4581679735     4.47828793
172  1   17.82547053     13.4581679735     4.47828793
173  1   20.56785061     13.4581679735     4.47828793
174  1   23.31023070     13.4581679735     4.47828793
175  1   26.05261078     13.4581679735     4.47828793
176  1   28.79499086     13.4581679735     4.47828793
177  1   10.96952033     15.8331387970     4.47828793
178  1   13.71190041     15.8331387970     4.47828793
179  1   16.45428049     15.8331387970     4.47828793
180  1   19.19666058     15.8331387970     4.47828793
181  1   21.93904065     15.8331387970     4.47828793
182  1   24.68142074     15.8331387970     4.47828793
183  1   27.42380082     15.8331387970     4.47828793
184  1   30.16618090     15.8331387970     4.47828793
185  1   12.34071037     18.2081096106     4.47828793
186  1   15.08309045     18.2081096106     4.47828793
187  1   17.82547053     18.2081096106     4.47828793
188  1   20.56785061     18.2081096106     4.47828793
189  1   23.31023070     18.2081096106     4.47828793
190  1   26.05261078     18.2081096106     4.47828793
191  1   28.79499086     18.2081096106     4.47828793
192  1   31.53737094     18.2081096106     4.47828793
193  1   4.11357012     2.3749708236     6.71743188
194  1   6.85595020     2.3749708236     6.71743188
195  1   9.59833029     2.3749708236     6.71743188
196  1   12.34071037     2.3749708236     6.71743188
197  1   15.08309045     2.3749708236     6.71743188
198  1   17.82547053     2.3749708236     6.71743188
199  1   20.56785061     2.3749708236     6.71743188
200  1   23.31023070     2.3749708236     6.71743188
201  1   5.48476017     4.7499416471     6.71743188
202  1   8.22714024     4.7499416471     6.71743188
203  1   10.96952033     4.7499416471     6.71743188
204  1   13.71190041     4.7499416471     6.71743188
205  1   16.45428049     4.7499416471     6.71743188
206  1   19.19666058     4.7499416471     6.71743188
207  1   21.93904065     4.7499416471     6.71743188
208  1   24.68142074     4.7499416471     6.71743188
209  1   6.85595020     7.1249124607     6.71743188
210  1   9.59833029     7.1249124607     6.71743188
211  1   12.34071037     7.1249124607     6.71743188
212  1   15.08309045     7.1249124607     6.71743188
213  1   17.82547053     7.1249124607     6.71743188
214  1   20.56785061     7.1249124607     6.71743188
215  1   23.31023070     7.1249124607     6.71743188
216  1   26.05261078     7.1249124607     6.71743188
217  1   8.22714024     9.4998832742     6.71743188
218  1   10.96952033     9.4998832742     6.71743188
219  1   13.71190041     9.4998832742     6.71743188
220  1   16.45428049     9.4998832742     6.71743188
221  1   19.19666058     9.4998832742     6.71743188
222  1   21.93904065     9.4998832742     6.71743188
223  1   24.68142074     9.4998832742     6.71743188
224  1   27.42380082     9.4998832742     6.71743188
225  1   9.59833029     11.8748540978     6.71743188
226  1   12.34071037     11.8748540978     6.71743188
227  1   15.08309045     11.8748540978     6.71743188
228  1   17.82547053     11.8748540978     6.71743188
229  1   20.56785061     11.8748540978     6.71743188
230  1   23.31023070     11.8748540978     6.71743188
231  1   26.05261078     11.8748540978     6.71743188
232  1   28.79499086     11.8748540978     6.71743188
233  1   10.96952033     14.2498249113     6.71743188
234  1   13.71190041     14.2498249113     6.71743188
235  1   16.45428049     14.2498249113     6.71743188
236  1   19.19666058     14.2498249113     6.71743188
237  1   21.93904065     14.2498249113     6.71743188
238  1   24.68142074     14.2498249113     6.71743188
239  1   27.42380082     14.2498249113     6.71743188
240  1   30.16618090     14.2498249113     6.71743188
241  1   12.34071037     16.6247957349     6.71743188
242  1   15.08309045     16.6247957349     6.71743188
243  1   17.82547053     16.6247957349     6.71743188
244  1   20.56785061     16.6247957349     6.71743188
245  1   23.31023070     16.6247957349     6.71743188
246  1   26.05261078     16.6247957349     6.71743188
247  1   28.79499086     16.6247957349     6.71743188
248  1   31.53737094     16.6247957349     6.71743188
249  1   13.71190041     18.9997665484     6.71743188
250  1   16.45428049     18.9997665484     6.71743188
251  1   19.19666058     18.9997665484     6.71743188
252  1   21.93904065     18.9997665484     6.71743188
253  1   24.68142074     18.9997665484     6.71743188
254  1   27.42380082     18.9997665484     6.71743188
255  1   30.16618090     18.9997665484     6.71743188
256  1   32.90856099     18.9997665484     6.71743188
257  1   5.48476017     3.1666277614     8.95657584
258  1   8.22714024     3.1666277614     8.95657584
259  1   10.96952033     3.1666277614     8.95657584
260  1   13.71190041     3.1666277614     8.95657584
261  1   16.45428049     3.1666277614     8.95657584
262  1   19.19666058     3.1666277614     8.95657584
263  1   21.93904065     3.1666277614     8.95657584
264  1   24.68142074     3.1666277614     8.95657584
265  1   6.85595020     5.5415985850     8.95657584
266  1   9.59833029     5.5415985850     8.95657584
267  1   12.34071037     5.5415985850     8.95657584
268  1   15.08309045     5.5415985850     8.95657584
269  1   17.82547053     5.5415985850     8.95657584
270  1   20.56785061     5.5415985850     8.95657584
271  1   23.31023070     5.5415985850     8.95657584
272  1   26.05261078     5.5415985850     8.95657584
273  1   8.22714024     7.9165693985     8.95657584
274  1   10.96952033     7.9165693985     8.95657584
275  1   13.71190041     7.9165693985     8.95657584
276  1   16.45428049     7.9165693985     8.95657584
277  1   19.19666058     7.9165693985     8.95657584
278  1   21.93904065     7.9165693985     8.95657584
279  1   24.68142074     7.9165693985     8.95657584
280  1   27.42380082     7.9165693985     8.95657584
281  1   9.59833029     10.2915402221     8.95657584
282  1   12.34071037     10.2915402221     8.95657584
283  1   15.08309045     10.2915402221     8.95657584
284  1   17.82547053     10.2915402221     8.95657584
285  1   20.56785061     10.2915402221     8.95657584
286  1   23.31023070     10.2915402221     8.95657584
287  1   26.05261078     10.2915402221     8.95657584
288  1   28.79499086     10.2915402221     8.95657584
289  1   10.96952033     12.6665110356     8.95657584
290  1   13.71190041     12.6665110356     8.95657584
291  1   16.45428049     12.6665110356     8.95657584
292  1   19.19666058     12.6665110356     8.95657584
293  1   21.93904065     12.6665110356     8.95657584
294  1   24.68142074     12.6665110356     8.95657584
295  1   27.42380082     12.6665110356     8.95657584
296  1   30.16618090     12.6665110356     8.95657584
297  1   12.34071037     15.0414818592     8.95657584
298  1   15.08309045     15.0414818592     8.95657584
299  1   17.82547053     15.0414818592     8.95657584
300  1   20.56785061     15.0414818592     8.95657584
301  1   23.31023070     15.0414818592     8.95657584
302  1   26.05261078     15.0414818592     8.95657584
303  1   28.79499086     15.0414818592     8.95657584
304  1   31.53737094     15.0414818592     8.95657584
305  1   13.71190041     17.4164526627     8.95657584
306  1   16.45428049     17.4164526627     8.95657584
307  1   19.19666058     17.4164526627     8.95657584
308  1   21.93904065     17.4164526627     8.95657584
309  1   24.68142074     17.4164526627     8.95657584
310  1   27.42380082     17.4164526627     8.95657584
311  1   30.16618090     17.4164526627     8.95657584
312  1   32.90856099     17.4164526627     8.95657584
313  1   15.08309045     19.7914234963     8.95657584
314  1   17.82547053     19.7914234963     8.95657584
315  1   20.56785061     19.7914234963     8.95657584
316  1   23.31023070     19.7914234963     8.95657584
317  1   26.05261078     19.7914234963     8.95657584
318  1   28.79499086     19.7914234963     8.95657584
319  1   31.53737094     19.7914234963     8.95657584
320  1   34.27975102     19.7914234963     8.95657584
321  1   6.85595020     3.9582847093     11.19571981
322  1   9.59833029     3.9582847093     11.19571981
323  1   12.34071037     3.9582847093     11.19571981
324  1   15.08309045     3.9582847093     11.19571981
325  1   17.82547053     3.9582847093     11.19571981
326  1   20.56785061     3.9582847093     11.19571981
327  1   23.31023070     3.9582847093     11.19571981
328  1   26.05261078     3.9582847093     11.19571981
329  1   8.22714024     6.3332555128     11.19571981
330  1   10.96952033     6.3332555128     11.19571981
331  1   13.71190041     6.3332555128     11.19571981
332  1   16.45428049     6.3332555128     11.19571981
333  1   19.19666058     6.3332555128     11.19571981
334  1   21.93904065     6.3332555128     11.19571981
335  1   24.68142074     6.3332555128     11.19571981
336  1   27.42380082     6.3332555128     11.19571981
337  1   9.59833029     8.7082263464     11.19571981
338  1   12.34071037     8.7082263464     11.19571981
339  1   15.08309045     8.7082263464     11.19571981
340  1   17.82547053     8.7082263464     11.19571981
341  1   20.56785061     8.7082263464     11.19571981
342  1   23.31023070     8.7082263464     11.19571981
343  1   26.05261078     8.7082263464     11.19571981
344  1   28.79499086     8.7082263464     11.19571981
345  1   10.96952033     11.0831971599     11.19571981
346  1   13.71190041     11.0831971599     11.19571981
347  1   16.45428049     11.0831971599     11.19571981
348  1   19.19666058     11.0831971599     11.19571981
349  1   21.93904065     11.0831971599     11.19571981
350  1   24.68142074     11.0831971599     11.19571981
351  1   27.42380082     11.0831971599     11.19571981
352  1   30.16618090     11.0831971599     11.19571981
353  1   12.34071037     13.4581679735     11.19571981
354  1   15.08309045     13.4581679735     11.19571981
355  1   17.82547053     13.4581679735     11.19571981
356  1   20.56785061     13.4581679735     11.19571981
357  1   23.31023070     13.4581679735     11.19571981
358  1   26.05261078     13.4581679735     11.19571981
359  1   28.79499086     13.4581679735     11.19571981
360  1   31.53737094     13.4581679735     11.19571981
361  1   13.71190041     15.8331387970     11.19571981
362  1   16.45428049     15.8331387970     11.19571981
363  1   19.19666058     15.8331387970     11.19571981
364  1   21.93904065     15.8331387970     11.19571981
365  1   24.68142074     15.8331387970     11.19571981
366  1   27.42380082     15.8331387970     11.19571981
367  1   30.16618090     15.8331387970     11.19571981
368  1   32.90856099     15.8331387970     11.19571981
369  1   15.08309045     18.2081096106     11.19571981
370  1   17.82547053     18.2081096106     11.19571981
371  1   20.56785061     18.2081096106     11.19571981
372  1   23.31023070     18.2081096106     11.19571981
373  1   26.05261078     18.2081096106     11.19571981
374  1   28.79499086     18.2081096106     11.19571981
375  1   31.53737094     18.2081096106     11.19571981
376  1   34.27975102     18.2081096106     11.19571981
377  1   16.45428049     20.5830804241     11.19571981
378  1   19.19666058     20.5830804241     11.19571981
379  1   21.93904065     20.5830804241     11.19571981
380  1   24.68142074     20.5830804241     11.19571981
381  1   27.42380082     20.5830804241     11.19571981
382  1   30.16618090     20.5830804241     11.19571981
383  1   32.90856099     20.5830804241     11.19571981
384  1   35.65094106     20.5830804241     11.19571981
385  1   8.22714024     4.7499416471     13.43486376
386  1   10.96952033     4.7499416471     13.43486376
387  1   13.71190041     4.7499416471     13.43486376
388  1   16.45428049     4.7499416471     13.43486376
389  1   19.19666058     4.7499416471     13.43486376
390  1   21.93904065     4.7499416471     13.43486376
391  1   24.68142074     4.7499416471     13.43486376
392  1   27.42380082     4.7499416471     13.43486376
393  1   9.59833029     7.1249124607     13.43486376
394  1   12.34071037     7.1249124607     13.43486376
395  1   15.08309045     7.1249124607     13.43486376
396  1   17.82547053     7.1249124607     13.43486376
397  1   20.56785061     7.1249124607     13.43486376
398  1   23.31023070     7.1249124607     13.43486376
399  1   26.05261078     7.1249124607     13.43486376
400  1   28.79499086     7.1249124607     13.43486376
401  1   10.96952033     9.4998832742     13.43486376
402  1   13.71190041     9.4998832742     13.43486376
403  1   16.45428049     9.4998832742     13.43486376
404  1   19.19666058     9.4998832742     13.43486376
405  1   21.93904065     9.4998832742     13.43486376
406  1   24.68142074     9.4998832742     13.43486376
407  1   27.42380082     9.4998832742     13.43486376
408  1   30.16618090     9.4998832742     13.43486376
409  1   12.34071037     11.8748540978     13.43486376
410  1   15.08309045     11.8748540978     13.43486376
411  1   17.82547053     11.8748540978     13.43486376
412  1   20.56785061     11.8748540978     13.43486376
413  1   23.31023070     11.8748540978     13.43486376
414  1   26.05261078     11.8748540978     13.43486376
415  1   28.79499086     11.8748540978     13.43486376
416  1   31.53737094     11.8748540978     13.43486376
417  1   13.71190041     14.2498249113     13.43486376
418  1   16.45428049     14.2498249113     13.43486376
419  1   19.19666058     14.2498249113     13.43486376
420  1   21.93904065     14.2498249113     13.43486376
421  1   24.68142074     14.2498249113     13.43486376
422  1   27.42380082     14.2498249113     13.43486376
423  1   30.16618090     14.2498249113     13.43486376
424  1   32.90856099     14.2498249113     13.43486376
425  1   15.08309045     16.6247957349     13.43486376
426  1   17.82547053     16.6247957349     13.43486376
427  1   20.56785061     16.6247957349     13.43486376
428  1   23.31023070     16.6247957349     13.43486376
429  1   26.05261078     16.6247957349     13.43486376
430  1   28.79499086     16.6247957349     13.43486376
431  1   31.53737094     16.6247957349     13.43486376
432  1   34.27975102     16.6247957349     13.43486376
433  1   16.45428049     18.9997665484     13.43486376
434  1   19.19666058     18.9997665484     13.43486376
435  1   21.93904065     18.9997665484     13.43486376
436  1   24.68142074     18.9997665484     13.43486376
437  1   27.42380082     18.9997665484     13.43486376
438  1   30.16618090     18.9997665484     13.43486376
439  1   32.90856099     18.9997665484     13.43486376
440  1   35.65094106     18.9997665484     13.43486376
441  1   17.82547053     21.3747373720     13.43486376
442  1   20.56785061     21.3747373720     13.43486376
443  1   23.31023070     21.3747373720     13.43486376
444  1   26.05261078     21.3747373720     13.43486376
445  1   28.79499086     21.3747373720     13.43486376
446  1   31.53737094     21.3747373720     13.43486376
447  1   34.27975102     21.3747373720     13.43486376
448  1   37.02213111     21.3747373720     13.43486376
449  1   9.59833029     5.5415985850     15.67400772
450  1   12.34071037     5.5415985850     15.67400772
451  1   15.08309045     5.5415985850     15.67400772
452  1   17.82547053     5.5415985850     15.67400772
453  1   20.56785061     5.5415985850     15.67400772
454  1   23.31023070     5.5415985850     15.67400772
455  1   26.05261078     5.5415985850     15.67400772
456  1   28.79499086     5.5415985850     15.67400772
457  1   10.96952033     7.9165693985     15.67400772
458  1   13.71190041     7.9165693985     15.67400772
459  1   16.45428049     7.9165693985     15.67400772
460  1   19.19666058     7.9165693985     15.67400772
461  1   21.93904065     7.9165693985     15.67400772
462  1   24.68142074     7.9165693985     15.67400772
463  1   27.42380082     7.9165693985     15.67400772
464  1   30.16618090     7.9165693985     15.67400772
465  1   12.34071037     10.2915402221     15.67400772
466  1   15.08309045     10.2915402221     15.67400772
467  1   17.82547053     10.2915402221     15.67400772
468  1   20.56785061     10.2915402221     15.67400772
469  1   23.31023070     10.2915402221     15.67400772
470  1   26.05261078     10.2915402221     15.67400772
471  1   28.79499086     10.2915402221     15.67400772
472  1   31.53737094     10.2915402221     15.67400772
473  1   13.71190041     12.6665110356     15.67400772
474  1   16.45428049     12.6665110356     15.67400772
475  1   19.19666058     12.6665110356     15.67400772
476  1   21.93904065     12.6665110356     15.67400772
477  1   24.68142074     12.6665110356     15.67400772
478  1   27.42380082     12.6665110356     15.67400772
479  1   30.16618090     12.6665110356     15.67400772
480  1   32.90856099     12.6665110356     15.67400772
481  1   15.08309045     15.0414818592     15.67400772
482  1   17.82547053     15.0414818592     15.67400772
483  1   20.56785061     15.0414818592     15.67400772
484  1   23.31023070     15.0414818592     15.67400772
485  1   26.05261078     15.0414818592     15.67400772
486  1   28.79499086     15.0414818592     15.67400772
487  1   31.53737094     15.0414818592     15.67400772
488  1   34.27975102     15.0414818592     15.67400772
489  1   16.45428049     17.4164526627     15.67400772
490  1   19.19666058     17.4164526627     15.67400772
491  1   21.93904065     17.4164526627     15.67400772
492  1   24.68142074     17.4164526627     15.67400772
493  1   27.42380082     17.4164526627     15.67400772
494  1   30.16618090     17.4164526627     15.67400772
495  1   32.90856099     17.4164526627     15.67400772
496  1   35.65094106     17.4164526627     15.67400772
497  1   17.82547053     19.7914234963     15.67400772
498  1   20.56785061     19.7914234963     15.67400772
499  1   23.31023070     19.7914234963     15.67400772
500  1   26.05261078     19.7914234963     15.67400772
501  1   28.79499086     19.7914234963     15.67400772
502  1   31.53737094     19.7914234963     15.67400772
503  1   34.27975102     19.7914234963     15.67400772
504  1   37.02213111     19.7914234963     15.67400772
505  1   19.19666058     22.1663943098     15.67400772
506  1   21.93904065     22.1663943098     15.67400772
507  1   24.68142074     22.1663943098     15.67400772
508  1   27.42380082     22.1663943098     15.67400772
509  1   30.16618090     22.1663943098     15.67400772
510  1   32.90856099     22.1663943098     15.67400772
511  1   35.65094106     22.1663943098     15.67400772
512  1   38.39332115     22.1663943098     15.67400772
