FCC(001) cell with dimension 8 x 8 x 8

512  atoms
  1  atom types

     0.00000000     22.19748301 xlo xhi
     0.00000000     19.22358419 ylo yhi
     0.00000000     18.12416898 zlo zhi
    11.09874150     11.09874150      6.40786139 xy xz yz

Atoms

  1  1   0.00000000     0.0000000000     0.00000000
  2  1   2.77468537     0.0000000000     0.00000000
  3  1   5.54937076     0.0000000000     0.00000000
  4  1   8.32405613     0.0000000000     0.00000000
  5  1   11.09874151     0.0000000000     0.00000000
  6  1   13.87342689     0.0000000000     0.00000000
  7  1   16.64811226     0.0000000000     0.00000000
  8  1   19.42279764     0.0000000000     0.00000000
  9  1   1.38734269     2.4029480336     0.00000000
 10  1   4.16202807     2.4029480336     0.00000000
 11  1   6.93671344     2.4029480336     0.00000000
 12  1   9.71139882     2.4029480336     0.00000000
 13  1   12.48608420     2.4029480336     0.00000000
 14  1   15.26076958     2.4029480336     0.00000000
 15  1   18.03545495     2.4029480336     0.00000000
 16  1   20.81014033     2.4029480336     0.00000000
 17  1   2.77468537     4.8058960571     0.00000000
 18  1   5.54937076     4.8058960571     0.00000000
 19  1   8.32405613     4.8058960571     0.00000000
 20  1   11.09874151     4.8058960571     0.00000000
 21  1   13.87342689     4.8058960571     0.00000000
 22  1   16.64811226     4.8058960571     0.00000000
 23  1   19.42279764     4.8058960571     0.00000000
 24  1   22.19748302     4.8058960571     0.00000000
 25  1   4.16202807     7.2088440807     0.00000000
 26  1   6.93671344     7.2088440807     0.00000000
 27  1   9.71139882     7.2088440807     0.00000000
 28  1   12.48608420     7.2088440807     0.00000000
 29  1   15.26076958     7.2088440807     0.00000000
 30  1   18.03545495     7.2088440807     0.00000000
 31  1   20.81014033     7.2088440807     0.00000000
 32  1   23.58482571     7.2088440807     0.00000000
 33  1   5.54937076     9.6117921042     0.00000000
 34  1   8.32405613     9.6117921042     0.00000000
 35  1   11.09874151     9.6117921042     0.00000000
 36  1   13.87342689     9.6117921042     0.00000000
 37  1   16.64811226     9.6117921042     0.00000000
 38  1   19.42279764     9.6117921042     0.00000000
 39  1   22.19748302     9.6117921042     0.00000000
 40  1   24.97216840     9.6117921042     0.00000000
 41  1   6.93671344     12.0147401378     0.00000000
 42  1   9.71139882     12.0147401378     0.00000000
 43  1   12.48608420     12.0147401378     0.00000000
 44  1   15.26076958     12.0147401378     0.00000000
 45  1   18.03545495     12.0147401378     0.00000000
 46  1   20.81014033     12.0147401378     0.00000000
 47  1   23.58482571     12.0147401378     0.00000000
 48  1   26.35951108     12.0147401378     0.00000000
 49  1   8.32405613     14.4176881513     0.00000000
 50  1   11.09874151     14.4176881513     0.00000000
 51  1   13.87342689     14.4176881513     0.00000000
 52  1   16.64811226     14.4176881513     0.00000000
 53  1   19.42279764     14.4176881513     0.00000000
 54  1   22.19748302     14.4176881513     0.00000000
 55  1   24.97216840     14.4176881513     0.00000000
 56  1   27.74685377     14.4176881513     0.00000000
 57  1   9.71139882     16.8206361849     0.00000000
 58  1   12.48608420     16.8206361849     0.00000000
 59  1   15.26076958     16.8206361849     0.00000000
 60  1   18.03545495     16.8206361849     0.00000000
 61  1   20.81014033     16.8206361849     0.00000000
 62  1   23.58482571     16.8206361849     0.00000000
 63  1   26.35951108     16.8206361849     0.00000000
 64  1   29.13419647     16.8206361849     0.00000000
 65  1   1.38734269     0.8009826879     2.26552112
 66  1   4.16202807     0.8009826879     2.26552112
 67  1   6.93671344     0.8009826879     2.26552112
 68  1   9.71139882     0.8009826879     2.26552112
 69  1   12.48608420     0.8009826879     2.26552112
 70  1   15.26076958     0.8009826879     2.26552112
 71  1   18.03545495     0.8009826879     2.26552112
 72  1   20.81014033     0.8009826879     2.26552112
 73  1   2.77468537     3.2039307014     2.26552112
 74  1   5.54937076     3.2039307014     2.26552112
 75  1   8.32405613     3.2039307014     2.26552112
 76  1   11.09874151     3.2039307014     2.26552112
 77  1   13.87342689     3.2039307014     2.26552112
 78  1   16.64811226     3.2039307014     2.26552112
 79  1   19.42279764     3.2039307014     2.26552112
 80  1   22.19748302     3.2039307014     2.26552112
 81  1   4.16202807     5.6068787350     2.26552112
 82  1   6.93671344     5.6068787350     2.26552112
 83  1   9.71139882     5.6068787350     2.26552112
 84  1   12.48608420     5.6068787350     2.26552112
 85  1   15.26076958     5.6068787350     2.26552112
 86  1   18.03545495     5.6068787350     2.26552112
 87  1   20.81014033     5.6068787350     2.26552112
 88  1   23.58482571     5.6068787350     2.26552112
 89  1   5.54937076     8.0098267585     2.26552112
 90  1   8.32405613     8.0098267585     2.26552112
 91  1   11.09874151     8.0098267585     2.26552112
 92  1   13.87342689     8.0098267585     2.26552112
 93  1   16.64811226     8.0098267585     2.26552112
 94  1   19.42279764     8.0098267585     2.26552112
 95  1   22.19748302     8.0098267585     2.26552112
 96  1   24.97216840     8.0098267585     2.26552112
 97  1   6.93671344     10.4127747821     2.26552112
 98  1   9.71139882     10.4127747821     2.26552112
 99  1   12.48608420     10.4127747821     2.26552112
100  1   15.26076958     10.4127747821     2.26552112
101  1   18.03545495     10.4127747821     2.26552112
102  1   20.81014033     10.4127747821     2.26552112
103  1   23.58482571     10.4127747821     2.26552112
104  1   26.35951108     10.4127747821     2.26552112
105  1   8.32405613     12.8157228056     2.26552112
106  1   11.09874151     12.8157228056     2.26552112
107  1   13.87342689     12.8157228056     2.26552112
108  1   16.64811226     12.8157228056     2.26552112
109  1   19.42279764     12.8157228056     2.26552112
110  1   22.19748302     12.8157228056     2.26552112
111  1   24.97216840     12.8157228056     2.26552112
112  1   27.74685377     12.8157228056     2.26552112
113  1   9.71139882     15.2186708392     2.26552112
114  1   12.48608420     15.2186708392     2.26552112
115  1   15.26076958     15.2186708392     2.26552112
116  1   18.03545495     15.2186708392     2.26552112
117  1   20.81014033     15.2186708392     2.26552112
118  1   23.58482571     15.2186708392     2.26552112
119  1   26.35951108     15.2186708392     2.26552112
120  1   29.13419647     15.2186708392     2.26552112
121  1   11.09874151     17.6216188527     2.26552112
122  1   13.87342689     17.6216188527     2.26552112
123  1   16.64811226     17.6216188527     2.26552112
124  1   19.42279764     17.6216188527     2.26552112
125  1   22.19748302     17.6216188527     2.26552112
126  1   24.97216840     17.6216188527     2.26552112
127  1   27.74685377     17.6216188527     2.26552112
128  1   30.52153915     17.6216188527     2.26552112
129  1   2.77468537     1.6019653557     4.53104225
130  1   5.54937076     1.6019653557     4.53104225
131  1   8.32405613     1.6019653557     4.53104225
132  1   11.09874151     1.6019653557     4.53104225
133  1   13.87342689     1.6019653557     4.53104225
134  1   16.64811226     1.6019653557     4.53104225
135  1   19.42279764     1.6019653557     4.53104225
136  1   22.19748302     1.6019653557     4.53104225
137  1   4.16202807     4.0049133893     4.53104225
138  1   6.93671344     4.0049133893     4.53104225
139  1   9.71139882     4.0049133893     4.53104225
140  1   12.48608420     4.0049133893     4.53104225
141  1   15.26076958     4.0049133893     4.53104225
142  1   18.03545495     4.0049133893     4.53104225
143  1   20.81014033     4.0049133893     4.53104225
144  1   23.58482571     4.0049133893     4.53104225
145  1   5.54937076     6.4078614028     4.53104225
146  1   8.32405613     6.4078614028     4.53104225
147  1   11.09874151     6.4078614028     4.53104225
148  1   13.87342689     6.4078614028     4.53104225
149  1   16.64811226     6.4078614028     4.53104225
150  1   19.42279764     6.4078614028     4.53104225
151  1   22.19748302     6.4078614028     4.53104225
152  1   24.97216840     6.4078614028     4.53104225
153  1   6.93671344     8.8108094364     4.53104225
154  1   9.71139882     8.8108094364     4.53104225
155  1   12.48608420     8.8108094364     4.53104225
156  1   15.26076958     8.8108094364     4.53104225
157  1   18.03545495     8.8108094364     4.53104225
158  1   20.81014033     8.8108094364     4.53104225
159  1   23.58482571     8.8108094364     4.53104225
160  1   26.35951108     8.8108094364     4.53104225
161  1   8.32405613     11.2137574599     4.53104225
162  1   11.09874151     11.2137574599     4.53104225
163  1   13.87342689     11.2137574599     4.53104225
164  1   16.64811226     11.2137574599     4.53104225
165  1   19.42279764     11.2137574599     4.53104225
166  1   22.19748302     11.2137574599     4.53104225
167  1   24.97216840     11.2137574599     4.53104225
168  1   27.74685377     11.2137574599     4.53104225
169  1   9.71139882     13.6167054835     4.53104225
170  1   12.48608420     13.6167054835     4.53104225
171  1   15.26076958     13.6167054835     4.53104225
172  1   18.03545495     13.6167054835     4.53104225
173  1   20.81014033     13.6167054835     4.53104225
174  1   23.58482571     13.6167054835     4.53104225
175  1   26.35951108     13.6167054835     4.53104225
176  1   29.13419647     13.6167054835     4.53104225
177  1   11.09874151     16.0196535070     4.53104225
178  1   13.87342689     16.0196535070     4.53104225
179  1   16.64811226     16.0196535070     4.53104225
180  1   19.42279764     16.0196535070     4.53104225
181  1   22.19748302     16.0196535070     4.53104225
182  1   24.97216840     16.0196535070     4.53104225
183  1   27.74685377     16.0196535070     4.53104225
184  1   30.52153915     16.0196535070     4.53104225
185  1   12.48608420     18.4226015306     4.53104225
186  1   15.26076958     18.4226015306     4.53104225
187  1   18.03545495     18.4226015306     4.53104225
188  1   20.81014033     18.4226015306     4.53104225
189  1   23.58482571     18.4226015306     4.53104225
190  1   26.35951108     18.4226015306     4.53104225
191  1   29.13419647     18.4226015306     4.53104225
192  1   31.90888184     18.4226015306     4.53104225
193  1   4.16202807     2.4029480336     6.79656337
194  1   6.93671344     2.4029480336     6.79656337
195  1   9.71139882     2.4029480336     6.79656337
196  1   12.48608420     2.4029480336     6.79656337
197  1   15.26076958     2.4029480336     6.79656337
198  1   18.03545495     2.4029480336     6.79656337
199  1   20.81014033     2.4029480336     6.79656337
200  1   23.58482571     2.4029480336     6.79656337
201  1   5.54937076     4.8058960571     6.79656337
202  1   8.32405613     4.8058960571     6.79656337
203  1   11.09874151     4.8058960571     6.79656337
204  1   13.87342689     4.8058960571     6.79656337
205  1   16.64811226     4.8058960571     6.79656337
206  1   19.42279764     4.8058960571     6.79656337
207  1   22.19748302     4.8058960571     6.79656337
208  1   24.97216840     4.8058960571     6.79656337
209  1   6.93671344     7.2088440807     6.79656337
210  1   9.71139882     7.2088440807     6.79656337
211  1   12.48608420     7.2088440807     6.79656337
212  1   15.26076958     7.2088440807     6.79656337
213  1   18.03545495     7.2088440807     6.79656337
214  1   20.81014033     7.2088440807     6.79656337
215  1   23.58482571     7.2088440807     6.79656337
216  1   26.35951108     7.2088440807     6.79656337
217  1   8.32405613     9.6117921042     6.79656337
218  1   11.09874151     9.6117921042     6.79656337
219  1   13.87342689     9.6117921042     6.79656337
220  1   16.64811226     9.6117921042     6.79656337
221  1   19.42279764     9.6117921042     6.79656337
222  1   22.19748302     9.6117921042     6.79656337
223  1   24.97216840     9.6117921042     6.79656337
224  1   27.74685377     9.6117921042     6.79656337
225  1   9.71139882     12.0147401378     6.79656337
226  1   12.48608420     12.0147401378     6.79656337
227  1   15.26076958     12.0147401378     6.79656337
228  1   18.03545495     12.0147401378     6.79656337
229  1   20.81014033     12.0147401378     6.79656337
230  1   23.58482571     12.0147401378     6.79656337
231  1   26.35951108     12.0147401378     6.79656337
232  1   29.13419647     12.0147401378     6.79656337
233  1   11.09874151     14.4176881513     6.79656337
234  1   13.87342689     14.4176881513     6.79656337
235  1   16.64811226     14.4176881513     6.79656337
236  1   19.42279764     14.4176881513     6.79656337
237  1   22.19748302     14.4176881513     6.79656337
238  1   24.97216840     14.4176881513     6.79656337
239  1   27.74685377     14.4176881513     6.79656337
240  1   30.52153915     14.4176881513     6.79656337
241  1   12.48608420     16.8206361849     6.79656337
242  1   15.26076958     16.8206361849     6.79656337
243  1   18.03545495     16.8206361849     6.79656337
244  1   20.81014033     16.8206361849     6.79656337
245  1   23.58482571     16.8206361849     6.79656337
246  1   26.35951108     16.8206361849     6.79656337
247  1   29.13419647     16.8206361849     6.79656337
248  1   31.90888184     16.8206361849     6.79656337
249  1   13.87342689     19.2235841984     6.79656337
250  1   16.64811226     19.2235841984     6.79656337
251  1   19.42279764     19.2235841984     6.79656337
252  1   22.19748302     19.2235841984     6.79656337
253  1   24.97216840     19.2235841984     6.79656337
254  1   27.74685377     19.2235841984     6.79656337
255  1   30.52153915     19.2235841984     6.79656337
256  1   33.29622453     19.2235841984     6.79656337
257  1   5.54937076     3.2039307014     9.06208449
258  1   8.32405613     3.2039307014     9.06208449
259  1   11.09874151     3.2039307014     9.06208449
260  1   13.87342689     3.2039307014     9.06208449
261  1   16.64811226     3.2039307014     9.06208449
262  1   19.42279764     3.2039307014     9.06208449
263  1   22.19748302     3.2039307014     9.06208449
264  1   24.97216840     3.2039307014     9.06208449
265  1   6.93671344     5.6068787350     9.06208449
266  1   9.71139882     5.6068787350     9.06208449
267  1   12.48608420     5.6068787350     9.06208449
268  1   15.26076958     5.6068787350     9.06208449
269  1   18.03545495     5.6068787350     9.06208449
270  1   20.81014033     5.6068787350     9.06208449
271  1   23.58482571     5.6068787350     9.06208449
272  1   26.35951108     5.6068787350     9.06208449
273  1   8.32405613     8.0098267585     9.06208449
274  1   11.09874151     8.0098267585     9.06208449
275  1   13.87342689     8.0098267585     9.06208449
276  1   16.64811226     8.0098267585     9.06208449
277  1   19.42279764     8.0098267585     9.06208449
278  1   22.19748302     8.0098267585     9.06208449
279  1   24.97216840     8.0098267585     9.06208449
280  1   27.74685377     8.0098267585     9.06208449
281  1   9.71139882     10.4127747821     9.06208449
282  1   12.48608420     10.4127747821     9.06208449
283  1   15.26076958     10.4127747821     9.06208449
284  1   18.03545495     10.4127747821     9.06208449
285  1   20.81014033     10.4127747821     9.06208449
286  1   23.58482571     10.4127747821     9.06208449
287  1   26.35951108     10.4127747821     9.06208449
288  1   29.13419647     10.4127747821     9.06208449
289  1   11.09874151     12.8157228056     9.06208449
290  1   13.87342689     12.8157228056     9.06208449
291  1   16.64811226     12.8157228056     9.06208449
292  1   19.42279764     12.8157228056     9.06208449
293  1   22.19748302     12.8157228056     9.06208449
294  1   24.97216840     12.8157228056     9.06208449
295  1   27.74685377     12.8157228056     9.06208449
296  1   30.52153915     12.8157228056     9.06208449
297  1   12.48608420     15.2186708392     9.06208449
298  1   15.26076958     15.2186708392     9.06208449
299  1   18.03545495     15.2186708392     9.06208449
300  1   20.81014033     15.2186708392     9.06208449
301  1   23.58482571     15.2186708392     9.06208449
302  1   26.35951108     15.2186708392     9.06208449
303  1   29.13419647     15.2186708392     9.06208449
304  1   31.90888184     15.2186708392     9.06208449
305  1   13.87342689     17.6216188527     9.06208449
306  1   16.64811226     17.6216188527     9.06208449
307  1   19.42279764     17.6216188527     9.06208449
308  1   22.19748302     17.6216188527     9.06208449
309  1   24.97216840     17.6216188527     9.06208449
310  1   27.74685377     17.6216188527     9.06208449
311  1   30.52153915     17.6216188527     9.06208449
312  1   33.29622453     17.6216188527     9.06208449
313  1   15.26076958     20.0245668763     9.06208449
314  1   18.03545495     20.0245668763     9.06208449
315  1   20.81014033     20.0245668763     9.06208449
316  1   23.58482571     20.0245668763     9.06208449
317  1   26.35951108     20.0245668763     9.06208449
318  1   29.13419647     20.0245668763     9.06208449
319  1   31.90888184     20.0245668763     9.06208449
320  1   34.68356721     20.0245668763     9.06208449
321  1   6.93671344     4.0049133893     11.32760562
322  1   9.71139882     4.0049133893     11.32760562
323  1   12.48608420     4.0049133893     11.32760562
324  1   15.26076958     4.0049133893     11.32760562
325  1   18.03545495     4.0049133893     11.32760562
326  1   20.81014033     4.0049133893     11.32760562
327  1   23.58482571     4.0049133893     11.32760562
328  1   26.35951108     4.0049133893     11.32760562
329  1   8.32405613     6.4078614028     11.32760562
330  1   11.09874151     6.4078614028     11.32760562
331  1   13.87342689     6.4078614028     11.32760562
332  1   16.64811226     6.4078614028     11.32760562
333  1   19.42279764     6.4078614028     11.32760562
334  1   22.19748302     6.4078614028     11.32760562
335  1   24.97216840     6.4078614028     11.32760562
336  1   27.74685377     6.4078614028     11.32760562
337  1   9.71139882     8.8108094364     11.32760562
338  1   12.48608420     8.8108094364     11.32760562
339  1   15.26076958     8.8108094364     11.32760562
340  1   18.03545495     8.8108094364     11.32760562
341  1   20.81014033     8.8108094364     11.32760562
342  1   23.58482571     8.8108094364     11.32760562
343  1   26.35951108     8.8108094364     11.32760562
344  1   29.13419647     8.8108094364     11.32760562
345  1   11.09874151     11.2137574599     11.32760562
346  1   13.87342689     11.2137574599     11.32760562
347  1   16.64811226     11.2137574599     11.32760562
348  1   19.42279764     11.2137574599     11.32760562
349  1   22.19748302     11.2137574599     11.32760562
350  1   24.97216840     11.2137574599     11.32760562
351  1   27.74685377     11.2137574599     11.32760562
352  1   30.52153915     11.2137574599     11.32760562
353  1   12.48608420     13.6167054835     11.32760562
354  1   15.26076958     13.6167054835     11.32760562
355  1   18.03545495     13.6167054835     11.32760562
356  1   20.81014033     13.6167054835     11.32760562
357  1   23.58482571     13.6167054835     11.32760562
358  1   26.35951108     13.6167054835     11.32760562
359  1   29.13419647     13.6167054835     11.32760562
360  1   31.90888184     13.6167054835     11.32760562
361  1   13.87342689     16.0196535070     11.32760562
362  1   16.64811226     16.0196535070     11.32760562
363  1   19.42279764     16.0196535070     11.32760562
364  1   22.19748302     16.0196535070     11.32760562
365  1   24.97216840     16.0196535070     11.32760562
366  1   27.74685377     16.0196535070     11.32760562
367  1   30.52153915     16.0196535070     11.32760562
368  1   33.29622453     16.0196535070     11.32760562
369  1   15.26076958     18.4226015306     11.32760562
370  1   18.03545495     18.4226015306     11.32760562
371  1   20.81014033     18.4226015306     11.32760562
372  1   23.58482571     18.4226015306     11.32760562
373  1   26.35951108     18.4226015306     11.32760562
374  1   29.13419647     18.4226015306     11.32760562
375  1   31.90888184     18.4226015306     11.32760562
376  1   34.68356721     18.4226015306     11.32760562
377  1   16.64811226     20.8255495441     11.32760562
378  1   19.42279764     20.8255495441     11.32760562
379  1   22.19748302     20.8255495441     11.32760562
380  1   24.97216840     20.8255495441     11.32760562
381  1   27.74685377     20.8255495441     11.32760562
382  1   30.52153915     20.8255495441     11.32760562
383  1   33.29622453     20.8255495441     11.32760562
384  1   36.07090990     20.8255495441     11.32760562
385  1   8.32405613     4.8058960571     13.59312674
386  1   11.09874151     4.8058960571     13.59312674
387  1   13.87342689     4.8058960571     13.59312674
388  1   16.64811226     4.8058960571     13.59312674
389  1   19.42279764     4.8058960571     13.59312674
390  1   22.19748302     4.8058960571     13.59312674
391  1   24.97216840     4.8058960571     13.59312674
392  1   27.74685377     4.8058960571     13.59312674
393  1   9.71139882     7.2088440807     13.59312674
394  1   12.48608420     7.2088440807     13.59312674
395  1   15.26076958     7.2088440807     13.59312674
396  1   18.03545495     7.2088440807     13.59312674
397  1   20.81014033     7.2088440807     13.59312674
398  1   23.58482571     7.2088440807     13.59312674
399  1   26.35951108     7.2088440807     13.59312674
400  1   29.13419647     7.2088440807     13.59312674
401  1   11.09874151     9.6117921042     13.59312674
402  1   13.87342689     9.6117921042     13.59312674
403  1   16.64811226     9.6117921042     13.59312674
404  1   19.42279764     9.6117921042     13.59312674
405  1   22.19748302     9.6117921042     13.59312674
406  1   24.97216840     9.6117921042     13.59312674
407  1   27.74685377     9.6117921042     13.59312674
408  1   30.52153915     9.6117921042     13.59312674
409  1   12.48608420     12.0147401378     13.59312674
410  1   15.26076958     12.0147401378     13.59312674
411  1   18.03545495     12.0147401378     13.59312674
412  1   20.81014033     12.0147401378     13.59312674
413  1   23.58482571     12.0147401378     13.59312674
414  1   26.35951108     12.0147401378     13.59312674
415  1   29.13419647     12.0147401378     13.59312674
416  1   31.90888184     12.0147401378     13.59312674
417  1   13.87342689     14.4176881513     13.59312674
418  1   16.64811226     14.4176881513     13.59312674
419  1   19.42279764     14.4176881513     13.59312674
420  1   22.19748302     14.4176881513     13.59312674
421  1   24.97216840     14.4176881513     13.59312674
422  1   27.74685377     14.4176881513     13.59312674
423  1   30.52153915     14.4176881513     13.59312674
424  1   33.29622453     14.4176881513     13.59312674
425  1   15.26076958     16.8206361849     13.59312674
426  1   18.03545495     16.8206361849     13.59312674
427  1   20.81014033     16.8206361849     13.59312674
428  1   23.58482571     16.8206361849     13.59312674
429  1   26.35951108     16.8206361849     13.59312674
430  1   29.13419647     16.8206361849     13.59312674
431  1   31.90888184     16.8206361849     13.59312674
432  1   34.68356721     16.8206361849     13.59312674
433  1   16.64811226     19.2235841984     13.59312674
434  1   19.42279764     19.2235841984     13.59312674
435  1   22.19748302     19.2235841984     13.59312674
436  1   24.97216840     19.2235841984     13.59312674
437  1   27.74685377     19.2235841984     13.59312674
438  1   30.52153915     19.2235841984     13.59312674
439  1   33.29622453     19.2235841984     13.59312674
440  1   36.07090990     19.2235841984     13.59312674
441  1   18.03545495     21.6265322220     13.59312674
442  1   20.81014033     21.6265322220     13.59312674
443  1   23.58482571     21.6265322220     13.59312674
444  1   26.35951108     21.6265322220     13.59312674
445  1   29.13419647     21.6265322220     13.59312674
446  1   31.90888184     21.6265322220     13.59312674
447  1   34.68356721     21.6265322220     13.59312674
448  1   37.45825260     21.6265322220     13.59312674
449  1   9.71139882     5.6068787350     15.85864786
450  1   12.48608420     5.6068787350     15.85864786
451  1   15.26076958     5.6068787350     15.85864786
452  1   18.03545495     5.6068787350     15.85864786
453  1   20.81014033     5.6068787350     15.85864786
454  1   23.58482571     5.6068787350     15.85864786
455  1   26.35951108     5.6068787350     15.85864786
456  1   29.13419647     5.6068787350     15.85864786
457  1   11.09874151     8.0098267585     15.85864786
458  1   13.87342689     8.0098267585     15.85864786
459  1   16.64811226     8.0098267585     15.85864786
460  1   19.42279764     8.0098267585     15.85864786
461  1   22.19748302     8.0098267585     15.85864786
462  1   24.97216840     8.0098267585     15.85864786
463  1   27.74685377     8.0098267585     15.85864786
464  1   30.52153915     8.0098267585     15.85864786
465  1   12.48608420     10.4127747821     15.85864786
466  1   15.26076958     10.4127747821     15.85864786
467  1   18.03545495     10.4127747821     15.85864786
468  1   20.81014033     10.4127747821     15.85864786
469  1   23.58482571     10.4127747821     15.85864786
470  1   26.35951108     10.4127747821     15.85864786
471  1   29.13419647     10.4127747821     15.85864786
472  1   31.90888184     10.4127747821     15.85864786
473  1   13.87342689     12.8157228056     15.85864786
474  1   16.64811226     12.8157228056     15.85864786
475  1   19.42279764     12.8157228056     15.85864786
476  1   22.19748302     12.8157228056     15.85864786
477  1   24.97216840     12.8157228056     15.85864786
478  1   27.74685377     12.8157228056     15.85864786
479  1   30.52153915     12.8157228056     15.85864786
480  1   33.29622453     12.8157228056     15.85864786
481  1   15.26076958     15.2186708392     15.85864786
482  1   18.03545495     15.2186708392     15.85864786
483  1   20.81014033     15.2186708392     15.85864786
484  1   23.58482571     15.2186708392     15.85864786
485  1   26.35951108     15.2186708392     15.85864786
486  1   29.13419647     15.2186708392     15.85864786
487  1   31.90888184     15.2186708392     15.85864786
488  1   34.68356721     15.2186708392     15.85864786
489  1   16.64811226     17.6216188527     15.85864786
490  1   19.42279764     17.6216188527     15.85864786
491  1   22.19748302     17.6216188527     15.85864786
492  1   24.97216840     17.6216188527     15.85864786
493  1   27.74685377     17.6216188527     15.85864786
494  1   30.52153915     17.6216188527     15.85864786
495  1   33.29622453     17.6216188527     15.85864786
496  1   36.07090990     17.6216188527     15.85864786
497  1   18.03545495     20.0245668763     15.85864786
498  1   20.81014033     20.0245668763     15.85864786
499  1   23.58482571     20.0245668763     15.85864786
500  1   26.35951108     20.0245668763     15.85864786
501  1   29.13419647     20.0245668763     15.85864786
502  1   31.90888184     20.0245668763     15.85864786
503  1   34.68356721     20.0245668763     15.85864786
504  1   37.45825260     20.0245668763     15.85864786
505  1   19.42279764     22.4275148998     15.85864786
506  1   22.19748302     22.4275148998     15.85864786
507  1   24.97216840     22.4275148998     15.85864786
508  1   27.74685377     22.4275148998     15.85864786
509  1   30.52153915     22.4275148998     15.85864786
510  1   33.29622453     22.4275148998     15.85864786
511  1   36.07090990     22.4275148998     15.85864786
512  1   38.84559529     22.4275148998     15.85864786
