ITEM: TIMESTEP
0
ITEM: NUMBER OF ATOMS
512
ITEM: BOX BOUNDS xy xz yz pp pp pp
0.0000000000000000e+00 4.4394966010000005e+01 1.1098741499999999e+01
0.0000000000000000e+00 2.5631445580000001e+01 1.1098741499999999e+01
0.0000000000000000e+00 1.8124168980000000e+01 6.4078613899999999e+00
ITEM: ATOMS id type xs ys zs
1 1 0 0 0
2 1 0.125 0 0
3 1 0.25 0 0
4 1 0.375 0 0
5 1 0.5 0 0
6 1 0.625 0 0
7 1 0.75 0 0
8 1 0.875 0 0
9 1 1 0.125 0
10 1 0.125 0.125 0
11 1 0.25 0.125 0
12 1 0.375 0.125 0
13 1 0.5 0.125 0
14 1 0.625 0.125 0
15 1 0.75 0.125 0
16 1 0.875 0.125 0
17 1 1 0.25 0
18 1 0.125 0.25 0
19 1 0.25 0.25 0
20 1 0.375 0.25 0
21 1 0.5 0.25 0
22 1 0.625 0.25 0
23 1 0.75 0.25 0
24 1 0.875 0.25 0
25 1 9.20843e-11 0.375 0
26 1 0.125 0.375 0
27 1 0.25 0.375 0
28 1 0.375 0.375 0
29 1 0.5 0.375 0
30 1 0.625 0.375 0
31 1 0.75 0.375 0
32 1 0.875 0.375 0
33 1 2.11212e-10 0.5 0
34 1 0.125 0.5 0
35 1 0.25 0.5 0
36 1 0.375 0.5 0
37 1 0.5 0.5 0
38 1 0.625 0.5 0
39 1 0.75 0.5 0
40 1 0.875 0.5 0
41 1 1 0.625 0
42 1 0.125 0.625 0
43 1 0.25 0.625 0
44 1 0.375 0.625 0
45 1 0.5 0.625 0
46 1 0.625 0.625 0
47 1 0.75 0.625 0
48 1 0.875 0.625 0
49 1 1 0.75 0
50 1 0.125 0.75 0
51 1 0.25 0.75 0
52 1 0.375 0.75 0
53 1 0.5 0.75 0
54 1 0.625 0.75 0
55 1 0.75 0.75 0
56 1 0.875 0.75 0
57 1 1 0.875 0
58 1 0.125 0.875 0
59 1 0.25 0.875 0
60 1 0.375 0.875 0
61 1 0.5 0.875 0
62 1 0.625 0.875 0
63 1 0.75 0.875 0
64 1 0.875 0.875 0
65 1 1 7.82054e-10 0.125
66 1 0.125 7.82054e-10 0.125
67 1 0.25 7.82054e-10 0.125
68 1 0.375 7.82054e-10 0.125
69 1 0.5 7.82054e-10 0.125
70 1 0.625 7.82054e-10 0.125
71 1 0.75 7.82054e-10 0.125
72 1 0.875 7.82054e-10 0.125
73 1 1 0.125 0.125
74 1 0.125 0.125 0.125
75 1 0.25 0.125 0.125
76 1 0.375 0.125 0.125
77 1 0.5 0.125 0.125
78 1 0.625 0.125 0.125
79 1 0.75 0.125 0.125
80 1 0.875 0.125 0.125
81 1 2.62217e-11 0.25 0.125
82 1 0.125 0.25 0.125
83 1 0.25 0.25 0.125
84 1 0.375 0.25 0.125
85 1 0.5 0.25 0.125
86 1 0.625 0.25 0.125
87 1 0.75 0.25 0.125
88 1 0.875 0.25 0.125
89 1 1.4535e-10 0.375 0.125
90 1 0.125 0.375 0.125
91 1 0.25 0.375 0.125
92 1 0.375 0.375 0.125
93 1 0.5 0.375 0.125
94 1 0.625 0.375 0.125
95 1 0.75 0.375 0.125
96 1 0.875 0.375 0.125
97 1 1 0.5 0.125
98 1 0.125 0.5 0.125
99 1 0.25 0.5 0.125
100 1 0.375 0.5 0.125
101 1 0.5 0.5 0.125
102 1 0.625 0.5 0.125
103 1 0.75 0.5 0.125
104 1 0.875 0.5 0.125
105 1 1 0.625 0.125
106 1 0.125 0.625 0.125
107 1 0.25 0.625 0.125
108 1 0.375 0.625 0.125
109 1 0.5 0.625 0.125
110 1 0.625 0.625 0.125
111 1 0.75 0.625 0.125
112 1 0.875 0.625 0.125
113 1 1 0.75 0.125
114 1 0.125 0.75 0.125
115 1 0.25 0.75 0.125
116 1 0.375 0.75 0.125
117 1 0.5 0.75 0.125
118 1 0.625 0.75 0.125
119 1 0.75 0.75 0.125
120 1 0.875 0.75 0.125
121 1 1.66157e-10 0.875 0.125
122 1 0.125 0.875 0.125
123 1 0.25 0.875 0.125
124 1 0.375 0.875 0.125
125 1 0.5 0.875 0.125
126 1 0.625 0.875 0.125
127 1 0.75 0.875 0.125
128 1 0.875 0.875 0.125
129 1 1 3.34601e-10 0.25
130 1 0.125 3.34601e-10 0.25
131 1 0.25 3.34601e-10 0.25
132 1 0.375 3.34601e-10 0.25
133 1 0.5 3.34601e-10 0.25
134 1 0.625 3.34601e-10 0.25
135 1 0.75 3.34601e-10 0.25
136 1 0.875 3.34601e-10 0.25
137 1 1 0.125 0.25
138 1 0.125 0.125 0.25
139 1 0.25 0.125 0.25
140 1 0.375 0.125 0.25
141 1 0.5 0.125 0.25
142 1 0.625 0.125 0.25
143 1 0.75 0.125 0.25
144 1 0.875 0.125 0.25
145 1 1.55668e-10 0.25 0.25
146 1 0.125 0.25 0.25
147 1 0.25 0.25 0.25
148 1 0.375 0.25 0.25
149 1 0.5 0.25 0.25
150 1 0.625 0.25 0.25
151 1 0.75 0.25 0.25
152 1 0.875 0.25 0.25
153 1 1 0.375 0.25
154 1 0.125 0.375 0.25
155 1 0.25 0.375 0.25
156 1 0.375 0.375 0.25
157 1 0.5 0.375 0.25
158 1 0.625 0.375 0.25
159 1 0.75 0.375 0.25
160 1 0.875 0.375 0.25
161 1 1 0.5 0.25
162 1 0.125 0.5 0.25
163 1 0.25 0.5 0.25
164 1 0.375 0.5 0.25
165 1 0.5 0.5 0.25
166 1 0.625 0.5 0.25
167 1 0.75 0.5 0.25
168 1 0.875 0.5 0.25
169 1 1 0.625 0.25
170 1 0.125 0.625 0.25
171 1 0.25 0.625 0.25
172 1 0.375 0.625 0.25
173 1 0.5 0.625 0.25
174 1 0.625 0.625 0.25
175 1 0.75 0.625 0.25
176 1 0.875 0.625 0.25
177 1 1 0.75 0.25
178 1 0.125 0.75 0.25
179 1 0.25 0.75 0.25
180 1 0.375 0.75 0.25
181 1 0.5 0.75 0.25
182 1 0.625 0.75 0.25
183 1 0.75 0.75 0.25
184 1 0.875 0.75 0.25
185 1 3.2905e-11 0.875 0.25
186 1 0.125 0.875 0.25
187 1 0.25 0.875 0.25
188 1 0.375 0.875 0.25
189 1 0.5 0.875 0.25
190 1 0.625 0.875 0.25
191 1 0.75 0.875 0.25
192 1 0.875 0.875 0.25
193 1 1 5.96461e-10 0.375
194 1 0.125 5.96461e-10 0.375
195 1 0.25 5.96461e-10 0.375
196 1 0.375 5.96461e-10 0.375
197 1 0.5 5.96461e-10 0.375
198 1 0.625 5.96461e-10 0.375
199 1 0.75 5.96461e-10 0.375
200 1 0.875 5.96461e-10 0.375
201 1 8.98049e-11 0.125 0.375
202 1 0.125 0.125 0.375
203 1 0.25 0.125 0.375
204 1 0.375 0.125 0.375
205 1 0.5 0.125 0.375
206 1 0.625 0.125 0.375
207 1 0.75 0.125 0.375
208 1 0.875 0.125 0.375
209 1 1 0.25 0.375
210 1 0.125 0.25 0.375
211 1 0.25 0.25 0.375
212 1 0.375 0.25 0.375
213 1 0.5 0.25 0.375
214 1 0.625 0.25 0.375
215 1 0.75 0.25 0.375
216 1 0.875 0.25 0.375
217 1 1 0.375 0.375
218 1 0.125 0.375 0.375
219 1 0.25 0.375 0.375
220 1 0.375 0.375 0.375
221 1 0.5 0.375 0.375
222 1 0.625 0.375 0.375
223 1 0.75 0.375 0.375
224 1 0.875 0.375 0.375
225 1 1 0.5 0.375
226 1 0.125 0.5 0.375
227 1 0.25 0.5 0.375
228 1 0.375 0.5 0.375
229 1 0.5 0.5 0.375
230 1 0.625 0.5 0.375
231 1 0.75 0.5 0.375
232 1 0.875 0.5 0.375
233 1 1.10613e-10 0.625 0.375
234 1 0.125 0.625 0.375
235 1 0.25 0.625 0.375
236 1 0.375 0.625 0.375
237 1 0.5 0.625 0.375
238 1 0.625 0.625 0.375
239 1 0.75 0.625 0.375
240 1 0.875 0.625 0.375
241 1 1 0.75 0.375
242 1 0.125 0.75 0.375
243 1 0.25 0.75 0.375
244 1 0.375 0.75 0.375
245 1 0.5 0.75 0.375
246 1 0.625 0.75 0.375
247 1 0.75 0.75 0.375
248 1 0.875 0.75 0.375
249 1 3.46267e-10 0.875 0.375
250 1 0.125 0.875 0.375
251 1 0.25 0.875 0.375
252 1 0.375 0.875 0.375
253 1 0.5 0.875 0.375
254 1 0.625 0.875 0.375
255 1 0.75 0.875 0.375
256 1 0.875 0.875 0.375
257 1 2.84039e-10 3.32924e-10 0.5
258 1 0.125 3.32924e-10 0.5
259 1 0.25 3.32924e-10 0.5
260 1 0.375 3.32924e-10 0.5
261 1 0.5 3.32924e-10 0.5
262 1 0.625 3.32924e-10 0.5
263 1 0.75 3.32924e-10 0.5
264 1 0.875 3.32924e-10 0.5
265 1 1 0.125 0.5
266 1 0.125 0.125 0.5
267 1 0.25 0.125 0.5
268 1 0.375 0.125 0.5
269 1 0.5 0.125 0.5
270 1 0.625 0.125 0.5
271 1 0.75 0.125 0.5
272 1 0.875 0.125 0.5
273 1 1 0.25 0.5
274 1 0.125 0.25 0.5
275 1 0.25 0.25 0.5
276 1 0.375 0.25 0.5
277 1 0.5 0.25 0.5
278 1 0.625 0.25 0.5
279 1 0.75 0.25 0.5
280 1 0.875 0.25 0.5
281 1 1 0.375 0.5
282 1 0.125 0.375 0.5
283 1 0.25 0.375 0.5
284 1 0.375 0.375 0.5
285 1 0.5 0.375 0.5
286 1 0.625 0.375 0.5
287 1 0.75 0.375 0.5
288 1 0.875 0.375 0.5
289 1 4.475e-11 0.5 0.5
290 1 0.125 0.5 0.5
291 1 0.25 0.5 0.5
292 1 0.375 0.5 0.5
293 1 0.5 0.5 0.5
294 1 0.625 0.5 0.5
295 1 0.75 0.5 0.5
296 1 0.875 0.5 0.5
297 1 1 0.625 0.5
298 1 0.125 0.625 0.5
299 1 0.25 0.625 0.5
300 1 0.375 0.625 0.5
301 1 0.5 0.625 0.5
302 1 0.625 0.625 0.5
303 1 0.75 0.625 0.5
304 1 0.875 0.625 0.5
305 1 2.80405e-10 0.75 0.5
306 1 0.125 0.75 0.5
307 1 0.25 0.75 0.5
308 1 0.375 0.75 0.5
309 1 0.5 0.75 0.5
310 1 0.625 0.75 0.5
311 1 0.75 0.75 0.5
312 1 0.875 0.75 0.5
313 1 3.96931e-10 0.875 0.5
314 1 0.125 0.875 0.5
315 1 0.25 0.875 0.5
316 1 0.375 0.875 0.5
317 1 0.5 0.875 0.5
318 1 0.625 0.875 0.5
319 1 0.75 0.875 0.5
320 1 0.875 0.875 0.5
321 1 1 9.31062e-10 0.625
322 1 0.125 9.31062e-10 0.625
323 1 0.25 9.31062e-10 0.625
324 1 0.375 9.31062e-10 0.625
325 1 0.5 9.31062e-10 0.625
326 1 0.625 9.31062e-10 0.625
327 1 0.75 9.31062e-10 0.625
328 1 0.875 9.31062e-10 0.625
329 1 1 0.125 0.625
330 1 0.125 0.125 0.625
331 1 0.25 0.125 0.625
332 1 0.375 0.125 0.625
333 1 0.5 0.125 0.625
334 1 0.625 0.125 0.625
335 1 0.75 0.125 0.625
336 1 0.875 0.125 0.625
337 1 1 0.25 0.625
338 1 0.125 0.25 0.625
339 1 0.25 0.25 0.625
340 1 0.375 0.25 0.625
341 1 0.5 0.25 0.625
342 1 0.625 0.25 0.625
343 1 0.75 0.25 0.625
344 1 0.875 0.25 0.625
345 1 1 0.375 0.625
346 1 0.125 0.375 0.625
347 1 0.25 0.375 0.625
348 1 0.375 0.375 0.625
349 1 0.5 0.375 0.625
350 1 0.625 0.375 0.625
351 1 0.75 0.375 0.625
352 1 0.875 0.375 0.625
353 1 1 0.5 0.625
354 1 0.125 0.5 0.625
355 1 0.25 0.5 0.625
356 1 0.375 0.5 0.625
357 1 0.5 0.5 0.625
358 1 0.625 0.5 0.625
359 1 0.75 0.5 0.625
360 1 0.875 0.5 0.625
361 1 3.06256e-11 0.625 0.625
362 1 0.125 0.625 0.625
363 1 0.25 0.625 0.625
364 1 0.375 0.625 0.625
365 1 0.5 0.625 0.625
366 1 0.625 0.625 0.625
367 1 0.75 0.625 0.625
368 1 0.875 0.625 0.625
369 1 1.47153e-10 0.75 0.625
370 1 0.125 0.75 0.625
371 1 0.25 0.75 0.625
372 1 0.375 0.75 0.625
373 1 0.5 0.75 0.625
374 1 0.625 0.75 0.625
375 1 0.75 0.75 0.625
376 1 0.875 0.75 0.625
377 1 7.58759e-11 0.875 0.625
378 1 0.125 0.875 0.625
379 1 0.25 0.875 0.625
380 1 0.375 0.875 0.625
381 1 0.5 0.875 0.625
382 1 0.625 0.875 0.625
383 1 0.75 0.875 0.625
384 1 0.875 0.875 0.625
385 1 1 6.67526e-10 0.75
386 1 0.125 6.67526e-10 0.75
387 1 0.25 6.67526e-10 0.75
388 1 0.375 6.67526e-10 0.75
389 1 0.5 6.67526e-10 0.75
390 1 0.625 6.67526e-10 0.75
391 1 0.75 6.67526e-10 0.75
392 1 0.875 6.67526e-10 0.75
393 1 1 0.125 0.75
394 1 0.125 0.125 0.75
395 1 0.25 0.125 0.75
396 1 0.375 0.125 0.75
397 1 0.5 0.125 0.75
398 1 0.625 0.125 0.75
399 1 0.75 0.125 0.75
400 1 0.875 0.125 0.75
401 1 1 0.25 0.75
402 1 0.125 0.25 0.75
403 1 0.25 0.25 0.75
404 1 0.375 0.25 0.75
405 1 0.5 0.25 0.75
406 1 0.625 0.25 0.75
407 1 0.75 0.25 0.75
408 1 0.875 0.25 0.75
409 1 1 0.375 0.75
410 1 0.125 0.375 0.75
411 1 0.25 0.375 0.75
412 1 0.375 0.375 0.75
413 1 0.5 0.375 0.75
414 1 0.625 0.375 0.75
415 1 0.75 0.375 0.75
416 1 0.875 0.375 0.75
417 1 2.2486e-10 0.5 0.75
418 1 0.125 0.5 0.75
419 1 0.25 0.5 0.75
420 1 0.375 0.5 0.75
421 1 0.5 0.5 0.75
422 1 0.625 0.5 0.75
423 1 0.75 0.5 0.75
424 1 0.875 0.5 0.75
425 1 8.12897e-11 0.625 0.75
426 1 0.125 0.625 0.75
427 1 0.25 0.625 0.75
428 1 0.375 0.625 0.75
429 1 0.5 0.625 0.75
430 1 0.625 0.625 0.75
431 1 0.75 0.625 0.75
432 1 0.875 0.625 0.75
433 1 1.00132e-11 0.75 0.75
434 1 0.125 0.75 0.75
435 1 0.25 0.75 0.75
436 1 0.375 0.75 0.75
437 1 0.5 0.75 0.75
438 1 0.625 0.75 0.75
439 1 0.75 0.75 0.75
440 1 0.875 0.75 0.75
441 1 1.2654e-10 0.875 0.75
442 1 0.125 0.875 0.75
443 1 0.25 0.875 0.75
444 1 0.375 0.875 0.75
445 1 0.5 0.875 0.75
446 1 0.625 0.875 0.75
447 1 0.75 0.875 0.75
448 1 0.875 0.875 0.75
449 1 1 9.29385e-10 0.875
450 1 0.125 9.29385e-10 0.875
451 1 0.25 9.29385e-10 0.875
452 1 0.375 9.29385e-10 0.875
453 1 0.5 9.29385e-10 0.875
454 1 0.625 9.29385e-10 0.875
455 1 0.75 9.29385e-10 0.875
456 1 0.875 9.29385e-10 0.875
457 1 1 0.125 0.875
458 1 0.125 0.125 0.875
459 1 0.25 0.125 0.875
460 1 0.375 0.125 0.875
461 1 0.5 0.125 0.875
462 1 0.625 0.125 0.875
463 1 0.75 0.125 0.875
464 1 0.875 0.125 0.875
465 1 3.98696e-11 0.25 0.875
466 1 0.125 0.25 0.875
467 1 0.25 0.25 0.875
468 1 0.375 0.25 0.875
469 1 0.5 0.25 0.875
470 1 0.625 0.25 0.875
471 1 0.75 0.25 0.875
472 1 0.875 0.25 0.875
473 1 1.58998e-10 0.375 0.875
474 1 0.125 0.375 0.875
475 1 0.25 0.375 0.875
476 1 0.375 0.375 0.875
477 1 0.5 0.375 0.875
478 1 0.625 0.375 0.875
479 1 0.75 0.375 0.875
480 1 0.875 0.375 0.875
481 1 1.54271e-11 0.5 0.875
482 1 0.125 0.5 0.875
483 1 0.25 0.5 0.875
484 1 0.375 0.5 0.875
485 1 0.5 0.5 0.875
486 1 0.625 0.5 0.875
487 1 0.75 0.5 0.875
488 1 0.875 0.5 0.875
489 1 1 0.625 0.875
490 1 0.125 0.625 0.875
491 1 0.25 0.625 0.875
492 1 0.375 0.625 0.875
493 1 0.5 0.625 0.875
494 1 0.625 0.625 0.875
495 1 0.75 0.625 0.875
496 1 0.875 0.625 0.875
497 1 6.06771e-11 0.75 0.875
498 1 0.125 0.75 0.875
499 1 0.25 0.75 0.875
500 1 0.375 0.75 0.875
501 1 0.5 0.75 0.875
502 1 0.625 0.75 0.875
503 1 0.75 0.75 0.875
504 1 0.875 0.75 0.875
505 1 1.79805e-10 0.875 0.875
506 1 0.125 0.875 0.875
507 1 0.25 0.875 0.875
508 1 0.375 0.875 0.875
509 1 0.5 0.875 0.875
510 1 0.625 0.875 0.875
511 1 0.75 0.875 0.875
512 1 0.875 0.875 0.875
ITEM: TIMESTEP
50000
ITEM: NUMBER OF ATOMS
512
ITEM: BOX BOUNDS xy xz yz pp pp pp
-1.8158504589806057e-02 4.4449441523753862e+01 1.1116900004581908e+01
-1.5725726272085794e-02 2.5657655123775683e+01 1.1116900004581908e+01
-1.4826356910393912e-02 1.8138995336910288e+01 6.4183452075039895e+00
ITEM: ATOMS id type xs ys zs
1 1 0.00196593 -0.00308771 0.00373261
2 1 0.127117 -0.00149324 -0.00351926
3 1 0.248253 -0.00235328 0.00481441
4 1 0.371639 -0.000648678 0.0036041
5 1 0.493139 0.00217794 0.00280594
6 1 0.621279 0.00540139 0.000314045
7 1 0.74578 0.00313055 0.00417598
8 1 0.875536 0.0006624 -0.000592285
9 1 1.0026 0.126501 -0.00227183
10 1 0.124631 0.129197 -0.00185875
11 1 0.250371 0.130076 0.00139992
12 1 0.378308 0.1251 -0.00350734
13 1 0.497333 0.125763 0.00169065
14 1 0.626192 0.126554 -0.00136362
15 1 0.749373 0.126024 0.00274606
16 1 0.875645 0.124957 -0.00182537
17 1 1.0076 0.246839 -0.00643981
18 1 0.126378 0.248779 0.00115121
19 1 0.253911 0.250423 0.000672637
20 1 0.377964 0.247252 0.00300444
21 1 0.502565 0.25125 -0.00267677
22 1 0.623027 0.252543 0.000772691
23 1 0.751946 0.245561 0.00481381
24 1 0.875955 0.249338 -0.00330241
25 1 -0.000500077 0.371289 0.00561189
26 1 0.12691 0.370501 0.00245878
27 1 0.254878 0.37482 1.02953e-06
28 1 0.377035 0.374416 -0.00184568
29 1 0.504613 0.377452 -0.00315885
30 1 0.632485 0.370471 -0.00487326
31 1 0.751672 0.371024 0.00505205
32 1 0.881006 0.372181 0.00147434
33 1 -0.00123836 0.498562 0.000384152
34 1 0.125911 0.499837 -0.00276413
35 1 0.252736 0.497187 0.000643167
36 1 0.380356 0.498675 -0.00277607
37 1 0.499277 0.501551 -0.00326469
38 1 0.627983 0.499556 -0.000628881
39 1 0.750371 0.501824 0.000563667
40 1 0.869424 0.503 0.00280992
41 1 0.997249 0.62908 -0.00659937
42 1 0.126886 0.624263 -0.00442929
43 1 0.249463 0.623591 -0.00503442
44 1 0.370499 0.622928 -0.00199003
45 1 0.495863 0.626694 -0.00455918
46 1 0.621387 0.62645 -0.000101477
47 1 0.748602 0.62699 -0.0018674
48 1 0.87515 0.628713 -0.00407668
49 1 1.00276 0.749774 0.00122667
50 1 0.121461 0.752913 0.000125043
51 1 0.2458 0.746614 0.00524066
52 1 0.375296 0.751147 -0.000598075
53 1 0.497626 0.75354 -0.00103175
54 1 0.622834 0.747621 -0.00138819
55 1 0.742491 0.758193 2.15006e-05
56 1 0.872142 0.751669 0.000351388
57 1 0.992555 0.877783 0.00337063
58 1 0.121853 0.878925 0.00114198
59 1 0.247425 0.873445 0.00369198
60 1 0.372204 0.883058 -0.00121757
61 1 0.497665 0.876847 0.000110425
62 1 0.615893 0.883196 0.00310357
63 1 0.744 0.880084 0.0017339
64 1 0.869422 0.874672 0.00263156
65 1 1.00508 -0.00419093 0.124647
66 1 0.125724 0.00241515 0.121844
67 1 0.247289 1.16133e-05 0.127071
68 1 0.36925 -0.00120654 0.12959
69 1 0.497037 -0.00461021 0.130061
70 1 0.622843 0.00144591 0.127809
71 1 0.75056 -0.00178285 0.129089
72 1 0.874907 0.00275578 0.122038
73 1 1.00221 0.12596 0.119359
74 1 0.12556 0.126821 0.121467
75 1 0.252172 0.123596 0.122941
76 1 0.373621 0.127338 0.124089
77 1 0.496677 0.125526 0.123285
78 1 0.629793 0.127469 0.124455
79 1 0.756149 0.11828 0.124578
80 1 0.875479 0.122861 0.123389
81 1 0.00794095 0.243052 0.123518
82 1 0.132638 0.249629 0.126076
83 1 0.2517 0.250907 0.124732
84 1 0.37456 0.248852 0.126839
85 1 0.499202 0.247267 0.125953
86 1 0.622863 0.255692 0.12111
87 1 0.752463 0.252075 0.123433
88 1 0.881355 0.245389 0.1198
89 1 0.000677749 0.377018 0.127336
90 1 0.122953 0.376703 0.129717
91 1 0.247114 0.378059 0.128183
92 1 0.379193 0.37047 0.123722
93 1 0.505443 0.377578 0.118002
94 1 0.629931 0.374186 0.128714
95 1 0.755492 0.376952 0.125115
96 1 0.875109 0.379802 0.127109
97 1 0.999128 0.504083 0.12295
98 1 0.126527 0.501172 0.12515
99 1 0.250841 0.50245 0.120707
100 1 0.378095 0.497564 0.123725
101 1 0.500151 0.502595 0.122069
102 1 0.621855 0.500949 0.126954
103 1 0.74947 0.504985 0.125336
104 1 0.872305 0.50905 0.125664
105 1 1.00173 0.623246 0.123044
106 1 0.123059 0.626313 0.122915
107 1 0.252542 0.62249 0.12301
108 1 0.377561 0.628897 0.121979
109 1 0.498415 0.623952 0.122151
110 1 0.624032 0.622921 0.126012
111 1 0.747178 0.632966 0.124705
112 1 0.873611 0.634419 0.124245
113 1 1.00036 0.745228 0.130264
114 1 0.122354 0.746978 0.128537
115 1 0.239681 0.752051 0.125069
116 1 0.372996 0.751303 0.121642
117 1 0.498255 0.745733 0.128434
118 1 0.619551 0.743071 0.130791
119 1 0.74754 0.754797 0.126412
120 1 0.878402 0.751765 0.119294
121 1 -0.00189972 0.876272 0.126815
122 1 0.124836 0.874991 0.122935
123 1 0.251782 0.873356 0.123887
124 1 0.370214 0.875903 0.127011
125 1 0.495178 0.870123 0.13187
126 1 0.621893 0.874024 0.128333
127 1 0.744993 0.880625 0.126073
128 1 0.874057 0.870083 0.134085
129 1 0.998939 0.00363514 0.243108
130 1 0.120158 0.00429313 0.246548
131 1 0.247011 0.000553124 0.252609
132 1 0.374849 -0.00194481 0.249491
133 1 0.499479 -0.000648046 0.2511
134 1 0.622766 0.00838725 0.248615
135 1 0.745597 -0.00216431 0.251824
136 1 0.873482 -0.0012111 0.249013
137 1 1.00217 0.126558 0.246658
138 1 0.129459 0.123689 0.253004
139 1 0.257875 0.128769 0.244569
140 1 0.375845 0.124628 0.253836
141 1 0.500071 0.123259 0.246693
142 1 0.624765 0.121152 0.253983
143 1 0.750457 0.127095 0.248463
144 1 0.879672 0.124892 0.241674
145 1 0.00441494 0.244261 0.24994
146 1 0.123086 0.250935 0.251268
147 1 0.247197 0.249759 0.251814
148 1 0.373443 0.250594 0.251334
149 1 0.504912 0.247697 0.248124
150 1 0.632674 0.247338 0.247746
151 1 0.757692 0.247003 0.248707
152 1 0.878681 0.248746 0.24918
153 1 0.998643 0.375552 0.25204
154 1 0.127931 0.3772 0.249417
155 1 0.253719 0.373956 0.255095
156 1 0.37902 0.373361 0.250172
157 1 0.501533 0.378101 0.24894
158 1 0.6363 0.373086 0.246522
159 1 0.758648 0.369066 0.25215
160 1 0.878414 0.374995 0.249681
161 1 1.00096 0.499356 0.250647
162 1 0.126299 0.501447 0.249942
163 1 0.254486 0.493983 0.250724
164 1 0.374742 0.500717 0.246932
165 1 0.50196 0.502034 0.249794
166 1 0.628124 0.495654 0.247186
167 1 0.749869 0.501271 0.249484
168 1 0.876542 0.502213 0.252721
169 1 1.00378 0.619763 0.25348
170 1 0.124866 0.624216 0.252248
171 1 0.248365 0.624395 0.247414
172 1 0.373369 0.62697 0.245853
173 1 0.502771 0.617623 0.255441
174 1 0.626252 0.622343 0.255076
175 1 0.75468 0.622776 0.248404
176 1 0.875505 0.621696 0.253906
177 1 0.997108 0.747579 0.252178
178 1 0.129772 0.746747 0.252215
179 1 0.25152 0.742798 0.254639
180 1 0.369634 0.75216 0.252488
181 1 0.497112 0.747838 0.251434
182 1 0.621206 0.747291 0.250321
183 1 0.751295 0.750154 0.250012
184 1 0.880615 0.741081 0.251314
185 1 0.00642068 0.874068 0.245488
186 1 0.124777 0.875771 0.246326
187 1 0.247031 0.876289 0.249271
188 1 0.370257 0.872511 0.253062
189 1 0.495992 0.874269 0.253688
190 1 0.623845 0.875903 0.250846
191 1 0.745889 0.873159 0.254091
192 1 0.872903 0.877943 0.247442
193 1 0.999503 -0.00197667 0.373869
194 1 0.131143 -0.00759 0.378061
195 1 0.253756 -0.000546083 0.371804
196 1 0.377657 -0.00103593 0.373897
197 1 0.494952 0.00100828 0.378816
198 1 0.619927 -0.00118832 0.379771
199 1 0.748583 -0.00124101 0.371008
200 1 0.874863 -0.0041327 0.3753
201 1 0.00442317 0.120247 0.372968
202 1 0.12494 0.124471 0.372822
203 1 0.245714 0.127104 0.378949
204 1 0.367692 0.127753 0.379644
205 1 0.497674 0.127941 0.373854
206 1 0.622408 0.126035 0.375181
207 1 0.75216 0.121728 0.373055
208 1 0.876891 0.122389 0.368495
209 1 1.00024 0.247781 0.376714
210 1 0.128428 0.251331 0.373555
211 1 0.247953 0.2488 0.379468
212 1 0.376375 0.245053 0.377706
213 1 0.503804 0.252042 0.372305
214 1 0.624213 0.247248 0.376532
215 1 0.758987 0.24601 0.374128
216 1 0.883449 0.24821 0.369054
217 1 1.00694 0.371516 0.374077
218 1 0.130195 0.373902 0.377453
219 1 0.255886 0.366401 0.377595
220 1 0.377146 0.374329 0.373243
221 1 0.499152 0.380287 0.372813
222 1 0.631598 0.373249 0.376334
223 1 0.750811 0.378614 0.375907
224 1 0.879921 0.37139 0.377583
225 1 1.00249 0.500804 0.376786
226 1 0.128296 0.501036 0.374428
227 1 0.247333 0.500166 0.376686
228 1 0.369782 0.50161 0.375972
229 1 0.497086 0.497329 0.378887
230 1 0.624204 0.501419 0.379583
231 1 0.746834 0.500044 0.37869
232 1 0.872255 0.497545 0.384694
233 1 0.000433907 0.628972 0.37767
234 1 0.126876 0.621755 0.372676
235 1 0.249772 0.619501 0.377199
236 1 0.370533 0.627638 0.369991
237 1 0.494061 0.627512 0.374572
238 1 0.622268 0.626619 0.376511
239 1 0.752824 0.626112 0.374124
240 1 0.87322 0.625238 0.378221
241 1 1.00066 0.753253 0.366995
242 1 0.123193 0.747977 0.37611
243 1 0.250038 0.747059 0.372638
244 1 0.369192 0.751369 0.377116
245 1 0.494945 0.754981 0.378309
246 1 0.619908 0.752793 0.372651
247 1 0.748364 0.747859 0.375862
248 1 0.869927 0.753835 0.37698
249 1 -0.00037338 0.874332 0.371882
250 1 0.124181 0.87633 0.371109
251 1 0.247604 0.87204 0.378894
252 1 0.371208 0.872627 0.380745
253 1 0.498139 0.872849 0.378633
254 1 0.623592 0.872027 0.374113
255 1 0.744158 0.872899 0.375112
256 1 0.873511 0.878093 0.369483
257 1 0.000607639 -0.00373031 0.496464
258 1 0.125334 -0.00475388 0.499885
259 1 0.244827 -0.000157721 0.503802
260 1 0.373298 -0.00470522 0.500973
261 1 0.496122 0.00846724 0.494289
262 1 0.623538 -9.25009e-05 0.500332
263 1 0.752848 -0.00339323 0.503751
264 1 0.873009 -0.00302542 0.502634
265 1 1.0031 0.118489 0.49972
266 1 0.125286 0.124009 0.495579
267 1 0.24431 0.125801 0.504901
268 1 0.372801 0.125281 0.503973
269 1 0.507243 0.126862 0.502009
270 1 0.628979 0.125117 0.499722
271 1 0.756725 0.120785 0.492779
272 1 0.883767 0.124009 0.49208
273 1 1.00595 0.245747 0.498755
274 1 0.11988 0.244811 0.511198
275 1 0.25266 0.244894 0.50571
276 1 0.380167 0.243756 0.497342
277 1 0.505462 0.252762 0.499696
278 1 0.634689 0.249831 0.494129
279 1 0.758507 0.253601 0.495309
280 1 0.876466 0.249508 0.500049
281 1 1.0001 0.374259 0.494543
282 1 0.126469 0.374139 0.49916
283 1 0.254493 0.373096 0.497406
284 1 0.377038 0.377545 0.496665
285 1 0.502024 0.373628 0.501537
286 1 0.624581 0.370621 0.507708
287 1 0.755576 0.37688 0.498394
288 1 0.878477 0.369904 0.501169
289 1 0.00233432 0.497646 0.501924
290 1 0.127456 0.493671 0.502733
291 1 0.246681 0.50271 0.496973
292 1 0.373709 0.499721 0.500001
293 1 0.501195 0.504004 0.499574
294 1 0.626852 0.500573 0.500076
295 1 0.746633 0.506124 0.498224
296 1 0.883025 0.501574 0.492453
297 1 1.0012 0.622148 0.50446
298 1 0.120374 0.627108 0.497896
299 1 0.244639 0.622696 0.506833
300 1 0.372409 0.622399 0.498417
301 1 0.497208 0.622195 0.500249
302 1 0.626775 0.629854 0.493412
303 1 0.752136 0.626276 0.496369
304 1 0.875974 0.626167 0.499359
305 1 -0.000640696 0.748919 0.49522
306 1 0.127193 0.741747 0.500618
307 1 0.251929 0.751558 0.499019
308 1 0.372725 0.752099 0.504906
309 1 0.50149 0.744309 0.499837
310 1 0.616357 0.751564 0.500439
311 1 0.74542 0.749591 0.504338
312 1 0.872557 0.753305 0.495354
313 1 0.00259542 0.866929 0.501417
314 1 0.124593 0.872183 0.498404
315 1 0.24405 0.874108 0.505389
316 1 0.369373 0.873576 0.505481
317 1 0.497352 0.872874 0.500007
318 1 0.622746 0.867839 0.506568
319 1 0.748263 0.879685 0.499559
320 1 0.87864 0.868168 0.498987
321 1 0.993039 -0.00129992 0.627952
322 1 0.120315 -0.000737089 0.627384
323 1 0.248663 0.00231468 0.62262
324 1 0.374851 0.000525717 0.621694
325 1 0.500168 -4.53365e-05 0.625467
326 1 0.628063 0.0053122 0.621442
327 1 0.748956 0.00605376 0.625491
328 1 0.87484 0.000865813 0.622323
329 1 1.00281 0.121977 0.621182
330 1 0.12349 0.12198 0.626923
331 1 0.247008 0.126666 0.62639
332 1 0.374917 0.127272 0.621039
333 1 0.499765 0.125444 0.629047
334 1 0.628648 0.125638 0.620942
335 1 0.755273 0.126905 0.61819
336 1 0.875373 0.126252 0.626512
337 1 1.00002 0.246758 0.626937
338 1 0.127567 0.248286 0.623877
339 1 0.254403 0.254047 0.622876
340 1 0.379162 0.250747 0.621807
341 1 0.504887 0.248638 0.626072
342 1 0.626132 0.248736 0.623018
343 1 0.757305 0.249738 0.621252
344 1 0.877006 0.250115 0.624475
345 1 0.998028 0.374553 0.626716
346 1 0.124765 0.373671 0.623731
347 1 0.245338 0.379256 0.626536
348 1 0.379875 0.374708 0.621053
349 1 0.501593 0.37208 0.624006
350 1 0.626007 0.375547 0.626032
351 1 0.75047 0.37271 0.628378
352 1 0.881813 0.370066 0.62632
353 1 0.999608 0.497918 0.629593
354 1 0.125038 0.499539 0.629665
355 1 0.252712 0.50146 0.62609
356 1 0.371216 0.505582 0.626414
357 1 0.495769 0.502468 0.625709
358 1 0.625232 0.500184 0.62081
359 1 0.750101 0.505719 0.623495
360 1 0.870092 0.507395 0.620485
361 1 0.00176859 0.621065 0.628133
362 1 0.130505 0.622025 0.627074
363 1 0.251641 0.628724 0.622495
364 1 0.376204 0.621863 0.626651
365 1 0.501331 0.625294 0.624754
366 1 0.626653 0.623169 0.622452
367 1 0.747522 0.625893 0.622559
368 1 0.867506 0.629283 0.626763
369 1 -0.00332006 0.746526 0.632441
370 1 0.12416 0.748803 0.623848
371 1 0.255642 0.748735 0.623793
372 1 0.375996 0.746719 0.627101
373 1 0.49754 0.753677 0.629537
374 1 0.622324 0.745705 0.629531
375 1 0.751256 0.748614 0.625194
376 1 0.879383 0.749138 0.620934
377 1 -0.000111482 0.871578 0.621173
378 1 0.117058 0.876278 0.628995
379 1 0.247792 0.873136 0.629937
380 1 0.375449 0.874606 0.628532
381 1 0.497673 0.877923 0.622306
382 1 0.626698 0.872914 0.623809
383 1 0.747726 0.875546 0.629182
384 1 0.869268 0.877434 0.623828
385 1 0.995433 0.000755478 0.754916
386 1 0.124066 0.00363343 0.750047
387 1 0.253205 -0.00421098 0.753588
388 1 0.374317 0.00107571 0.746657
389 1 0.499025 0.00110842 0.748058
390 1 0.620161 0.00180834 0.751657
391 1 0.746057 0.00141464 0.749684
392 1 0.875372 0.00310704 0.748368
393 1 1.0017 0.125738 0.751857
394 1 0.127908 0.12791 0.747865
395 1 0.249836 0.12612 0.750745
396 1 0.378631 0.126 0.743243
397 1 0.498725 0.123548 0.752413
398 1 0.626909 0.12887 0.744661
399 1 0.748574 0.130232 0.74775
400 1 0.872696 0.124865 0.753274
401 1 0.999327 0.252105 0.749304
402 1 0.128459 0.253831 0.748206
403 1 0.251187 0.251083 0.748592
404 1 0.37806 0.256426 0.746621
405 1 0.501915 0.251314 0.751555
406 1 0.624464 0.248061 0.749784
407 1 0.754731 0.252673 0.747449
408 1 0.871247 0.252062 0.750238
409 1 0.997639 0.375096 0.747408
410 1 0.122463 0.374663 0.751631
411 1 0.251643 0.373297 0.746886
412 1 0.374889 0.375206 0.75327
413 1 0.500947 0.377478 0.748936
414 1 0.62554 0.379067 0.75048
415 1 0.75228 0.376682 0.74485
416 1 0.87367 0.373131 0.75235
417 1 0.0052012 0.495287 0.753985
418 1 0.13001 0.497932 0.751768
419 1 0.248865 0.496784 0.752865
420 1 0.373804 0.501343 0.750821
421 1 0.500719 0.505795 0.742924
422 1 0.624603 0.501507 0.747115
423 1 0.74944 0.498696 0.747796
424 1 0.875776 0.503866 0.745291
425 1 0.0019719 0.623439 0.750997
426 1 0.118285 0.631699 0.750826
427 1 0.250568 0.625452 0.749241
428 1 0.3792 0.627347 0.743809
429 1 0.496437 0.629528 0.749714
430 1 0.62033 0.625647 0.750478
431 1 0.747719 0.624117 0.747257
432 1 0.87189 0.621947 0.751211
433 1 -0.00647154 0.757676 0.747246
434 1 0.123334 0.752555 0.744219
435 1 0.244937 0.753608 0.750209
436 1 0.368972 0.752303 0.746835
437 1 0.4999 0.752728 0.747757
438 1 0.625112 0.748983 0.751245
439 1 0.75184 0.743966 0.753948
440 1 0.874201 0.74698 0.751877
441 1 -0.00267025 0.873622 0.753893
442 1 0.124336 0.876816 0.747333
443 1 0.249327 0.875825 0.747542
444 1 0.374108 0.873439 0.753448
445 1 0.500155 0.870792 0.753215
446 1 0.623143 0.868916 0.755646
447 1 0.748546 0.874454 0.747868
448 1 0.866463 0.879196 0.747533
449 1 0.995518 -0.00104034 0.879389
450 1 0.1294 0.00342493 0.869998
451 1 0.251787 0.00277865 0.873107
452 1 0.374024 0.00569769 0.874671
453 1 0.500017 -0.00583873 0.878517
454 1 0.624796 0.00248805 0.872065
455 1 0.743618 0.00494775 0.877341
456 1 0.869291 0.00233833 0.876714
457 1 1.00179 0.124528 0.878818
458 1 0.126505 0.127254 0.873122
459 1 0.255592 0.123787 0.874044
460 1 0.372188 0.12846 0.87743
461 1 0.505904 0.131304 0.874196
462 1 0.623774 0.126889 0.878448
463 1 0.748714 0.127351 0.878259
464 1 0.874365 0.123114 0.878629
465 1 -0.00225236 0.253374 0.871284
466 1 0.133182 0.247289 0.871361
467 1 0.245561 0.250891 0.881871
468 1 0.375178 0.257177 0.872978
469 1 0.495334 0.257983 0.877821
470 1 0.626799 0.251795 0.875459
471 1 0.751086 0.252034 0.876639
472 1 0.877734 0.246603 0.877356
473 1 0.00124787 0.370473 0.876593
474 1 0.125174 0.370699 0.875183
475 1 0.245367 0.370985 0.876147
476 1 0.376932 0.378766 0.876553
477 1 0.502579 0.379117 0.873494
478 1 0.627469 0.378955 0.870717
479 1 0.749162 0.375976 0.87405
480 1 0.870621 0.379053 0.87596
481 1 0.00101873 0.495183 0.877262
482 1 0.12728 0.498612 0.874019
483 1 0.24753 0.499069 0.876138
484 1 0.378439 0.495423 0.877175
485 1 0.502175 0.498892 0.874275
486 1 0.620169 0.504112 0.872675
487 1 0.74988 0.501742 0.86828
488 1 0.876341 0.502027 0.870238
489 1 0.999644 0.623717 0.876963
490 1 0.118631 0.628634 0.875309
491 1 0.249682 0.622653 0.869162
492 1 0.373273 0.627195 0.87108
493 1 0.497833 0.627951 0.875216
494 1 0.624334 0.624961 0.875975
495 1 0.7506 0.616516 0.873855
496 1 0.876267 0.621066 0.874611
497 1 -0.000645087 0.75218 0.876146
498 1 0.125564 0.755627 0.872539
499 1 0.249641 0.751839 0.876657
500 1 0.373154 0.751698 0.871437
501 1 0.495933 0.747977 0.875266
502 1 0.63109 0.746351 0.871607
503 1 0.753316 0.744653 0.87475
504 1 0.876005 0.753295 0.873306
505 1 -0.00192272 0.874659 0.878534
506 1 0.122549 0.876007 0.875507
507 1 0.247569 0.876452 0.874861