ITEM: TIMESTEP
0
ITEM: NUMBER OF ATOMS
512
ITEM: BOX BOUNDS xy xz yz pp pp pp
0.0000000000000000e+00 5.5976058930000008e+01 1.3994014730000000e+01
0.0000000000000000e+00 3.2317792689999997e+01 1.3994014730000000e+01
0.0000000000000000e+00 2.2852130360000000e+01 8.0794481699999992e+00
ITEM: ATOMS id type xs ys zs
1 1 0 0 0
2 1 0.125 0 0
3 1 0.25 0 0
4 1 0.375 0 0
5 1 0.5 0 0
6 1 0.625 0 0
7 1 0.75 0 0
8 1 0.875 0 0
9 1 1.35229e-10 0.125 0
10 1 0.125 0.125 0
11 1 0.25 0.125 0
12 1 0.375 0.125 0
13 1 0.5 0.125 0
14 1 0.625 0.125 0
15 1 0.75 0.125 0
16 1 0.875 0.125 0
17 1 1 0.25 0
18 1 0.125 0.25 0
19 1 0.25 0.25 0
20 1 0.375 0.25 0
21 1 0.5 0.25 0
22 1 0.625 0.25 0
23 1 0.75 0.25 0
24 1 0.875 0.25 0
25 1 1.05727e-10 0.375 0
26 1 0.125 0.375 0
27 1 0.25 0.375 0
28 1 0.375 0.375 0
29 1 0.5 0.375 0
30 1 0.625 0.375 0
31 1 0.75 0.375 0
32 1 0.875 0.375 0
33 1 9.20082e-11 0.5 0
34 1 0.125 0.5 0
35 1 0.25 0.5 0
36 1 0.375 0.5 0
37 1 0.5 0.5 0
38 1 0.625 0.5 0
39 1 0.75 0.5 0
40 1 0.875 0.5 0
41 1 1 0.625 0
42 1 0.125 0.625 0
43 1 0.25 0.625 0
44 1 0.375 0.625 0
45 1 0.5 0.625 0
46 1 0.625 0.625 0
47 1 0.75 0.625 0
48 1 0.875 0.625 0
49 1 1 0.75 0
50 1 0.125 0.75 0
51 1 0.25 0.75 0
52 1 0.375 0.75 0
53 1 0.5 0.75 0
54 1 0.625 0.75 0
55 1 0.75 0.75 0
56 1 0.875 0.75 0
57 1 1 0.875 0
58 1 0.125 0.875 0
59 1 0.25 0.875 0
60 1 0.375 0.875 0
61 1 0.5 0.875 0
62 1 0.625 0.875 0
63 1 0.75 0.875 0
64 1 0.875 0.875 0
65 1 4.21023e-11 7.59861e-10 0.125
66 1 0.125 7.59861e-10 0.125
67 1 0.25 7.59861e-10 0.125
68 1 0.375 7.59861e-10 0.125
69 1 0.5 7.59861e-10 0.125
70 1 0.625 7.59861e-10 0.125
71 1 0.75 7.59861e-10 0.125
72 1 0.875 7.59861e-10 0.125
73 1 1 0.125 0.125
74 1 0.125 0.125 0.125
75 1 0.25 0.125 0.125
76 1 0.375 0.125 0.125
77 1 0.5 0.125 0.125
78 1 0.625 0.125 0.125
79 1 0.75 0.125 0.125
80 1 0.875 0.125 0.125
81 1 1.2601e-11 0.25 0.125
82 1 0.125 0.25 0.125
83 1 0.25 0.25 0.125
84 1 0.375 0.25 0.125
85 1 0.5 0.25 0.125
86 1 0.625 0.25 0.125
87 1 0.75 0.25 0.125
88 1 0.875 0.25 0.125
89 1 1 0.375 0.125
90 1 0.125 0.375 0.125
91 1 0.25 0.375 0.125
92 1 0.375 0.375 0.125
93 1 0.5 0.375 0.125
94 1 0.625 0.375 0.125
95 1 0.75 0.375 0.125
96 1 0.875 0.375 0.125
97 1 1 0.5 0.125
98 1 0.125 0.5 0.125
99 1 0.25 0.5 0.125
100 1 0.375 0.5 0.125
101 1 0.5 0.5 0.125
102 1 0.625 0.5 0.125
103 1 0.75 0.5 0.125
104 1 0.875 0.5 0.125
105 1 1 0.625 0.125
106 1 0.125 0.625 0.125
107 1 0.25 0.625 0.125
108 1 0.375 0.625 0.125
109 1 0.5 0.625 0.125
110 1 0.625 0.625 0.125
111 1 0.75 0.625 0.125
112 1 0.875 0.625 0.125
113 1 1.04609e-10 0.75 0.125
114 1 0.125 0.75 0.125
115 1 0.25 0.75 0.125
116 1 0.375 0.75 0.125
117 1 0.5 0.75 0.125
118 1 0.625 0.75 0.125
119 1 0.75 0.75 0.125
120 1 0.875 0.75 0.125
121 1 2.97175e-10 0.875 0.125
122 1 0.125 0.875 0.125
123 1 0.25 0.875 0.125
124 1 0.375 0.875 0.125
125 1 0.5 0.875 0.125
126 1 0.625 0.875 0.125
127 1 0.75 0.875 0.125
128 1 0.875 0.875 0.125
129 1 1 1 0.25
130 1 0.125 1 0.25
131 1 0.25 1 0.25
132 1 0.375 1 0.25
133 1 0.5 1 0.25
134 1 0.625 1 0.25
135 1 0.75 1 0.25
136 1 0.875 1 0.25
137 1 1 0.125 0.25
138 1 0.125 0.125 0.25
139 1 0.25 0.125 0.25
140 1 0.375 0.125 0.25
141 1 0.5 0.125 0.25
142 1 0.625 0.125 0.25
143 1 0.75 0.125 0.25
144 1 0.875 0.125 0.25
145 1 1 0.25 0.25
146 1 0.125 0.25 0.25
147 1 0.25 0.25 0.25
148 1 0.375 0.25 0.25
149 1 0.5 0.25 0.25
150 1 0.625 0.25 0.25
151 1 0.75 0.25 0.25
152 1 0.875 0.25 0.25
153 1 1 0.375 0.25
154 1 0.125 0.375 0.25
155 1 0.25 0.375 0.25
156 1 0.375 0.375 0.25
157 1 0.5 0.375 0.25
158 1 0.625 0.375 0.25
159 1 0.75 0.375 0.25
160 1 0.875 0.375 0.25
161 1 1 0.5 0.25
162 1 0.125 0.5 0.25
163 1 0.25 0.5 0.25
164 1 0.375 0.5 0.25
165 1 0.5 0.5 0.25
166 1 0.625 0.5 0.25
167 1 0.75 0.5 0.25
168 1 0.875 0.5 0.25
169 1 1 0.625 0.25
170 1 0.125 0.625 0.25
171 1 0.25 0.625 0.25
172 1 0.375 0.625 0.25
173 1 0.5 0.625 0.25
174 1 0.625 0.625 0.25
175 1 0.75 0.625 0.25
176 1 0.875 0.625 0.25
177 1 1 0.75 0.25
178 1 0.125 0.75 0.25
179 1 0.25 0.75 0.25
180 1 0.375 0.75 0.25
181 1 0.5 0.75 0.25
182 1 0.625 0.75 0.25
183 1 0.75 0.75 0.25
184 1 0.875 0.75 0.25
185 1 1 0.875 0.25
186 1 0.125 0.875 0.25
187 1 0.25 0.875 0.25
188 1 0.375 0.875 0.25
189 1 0.5 0.875 0.25
190 1 0.625 0.875 0.25
191 1 0.75 0.875 0.25
192 1 0.875 0.875 0.25
193 1 1 3.33448e-10 0.375
194 1 0.125 3.33448e-10 0.375
195 1 0.25 3.33448e-10 0.375
196 1 0.375 3.33448e-10 0.375
197 1 0.5 3.33448e-10 0.375
198 1 0.625 3.33448e-10 0.375
199 1 0.75 3.33448e-10 0.375
200 1 0.875 3.33448e-10 0.375
201 1 1 0.125 0.375
202 1 0.125 0.125 0.375
203 1 0.25 0.125 0.375
204 1 0.375 0.125 0.375
205 1 0.5 0.125 0.375
206 1 0.625 0.125 0.375
207 1 0.75 0.125 0.375
208 1 0.875 0.125 0.375
209 1 1 0.25 0.375
210 1 0.125 0.25 0.375
211 1 0.25 0.25 0.375
212 1 0.375 0.25 0.375
213 1 0.5 0.25 0.375
214 1 0.625 0.25 0.375
215 1 0.75 0.25 0.375
216 1 0.875 0.25 0.375
217 1 1 0.375 0.375
218 1 0.125 0.375 0.375
219 1 0.25 0.375 0.375
220 1 0.375 0.375 0.375
221 1 0.5 0.375 0.375
222 1 0.625 0.375 0.375
223 1 0.75 0.375 0.375
224 1 0.875 0.375 0.375
225 1 1 0.5 0.375
226 1 0.125 0.5 0.375
227 1 0.25 0.5 0.375
228 1 0.375 0.5 0.375
229 1 0.5 0.5 0.375
230 1 0.625 0.5 0.375
231 1 0.75 0.5 0.375
232 1 0.875 0.5 0.375
233 1 2.54753e-11 0.625 0.375
234 1 0.125 0.625 0.375
235 1 0.25 0.625 0.375
236 1 0.375 0.625 0.375
237 1 0.5 0.625 0.375
238 1 0.625 0.625 0.375
239 1 0.75 0.625 0.375
240 1 0.875 0.625 0.375
241 1 1 0.75 0.375
242 1 0.125 0.75 0.375
243 1 0.25 0.75 0.375
244 1 0.375 0.75 0.375
245 1 0.5 0.75 0.375
246 1 0.625 0.75 0.375
247 1 0.75 0.75 0.375
248 1 0.875 0.75 0.375
249 1 1 0.875 0.375
250 1 0.125 0.875 0.375
251 1 0.25 0.875 0.375
252 1 0.375 0.875 0.375
253 1 0.5 0.875 0.375
254 1 0.625 0.875 0.375
255 1 0.75 0.875 0.375
256 1 0.875 0.875 0.375
257 1 4.66256e-11 2.64044e-10 0.5
258 1 0.125 2.64044e-10 0.5
259 1 0.25 2.64044e-10 0.5
260 1 0.375 2.64044e-10 0.5
261 1 0.5 2.64044e-10 0.5
262 1 0.625 2.64044e-10 0.5
263 1 0.75 2.64044e-10 0.5
264 1 0.875 2.64044e-10 0.5
265 1 1 0.125 0.5
266 1 0.125 0.125 0.5
267 1 0.25 0.125 0.5
268 1 0.375 0.125 0.5
269 1 0.5 0.125 0.5
270 1 0.625 0.125 0.5
271 1 0.75 0.125 0.5
272 1 0.875 0.125 0.5
273 1 1 0.25 0.5
274 1 0.125 0.25 0.5
275 1 0.25 0.25 0.5
276 1 0.375 0.25 0.5
277 1 0.5 0.25 0.5
278 1 0.625 0.25 0.5
279 1 0.75 0.25 0.5
280 1 0.875 0.25 0.5
281 1 1.52353e-10 0.375 0.5
282 1 0.125 0.375 0.5
283 1 0.25 0.375 0.5
284 1 0.375 0.375 0.5
285 1 0.5 0.375 0.5
286 1 0.625 0.375 0.5
287 1 0.75 0.375 0.5
288 1 0.875 0.375 0.5
289 1 1.38634e-10 0.5 0.5
290 1 0.125 0.5 0.5
291 1 0.25 0.5 0.5
292 1 0.375 0.5 0.5
293 1 0.5 0.5 0.5
294 1 0.625 0.5 0.5
295 1 0.75 0.5 0.5
296 1 0.875 0.5 0.5
297 1 1 0.625 0.5
298 1 0.125 0.625 0.5
299 1 0.25 0.625 0.5
300 1 0.375 0.625 0.5
301 1 0.5 0.625 0.5
302 1 0.625 0.625 0.5
303 1 0.75 0.625 0.5
304 1 0.875 0.625 0.5
305 1 1.09132e-10 0.75 0.5
306 1 0.125 0.75 0.5
307 1 0.25 0.75 0.5
308 1 0.375 0.75 0.5
309 1 0.5 0.75 0.5
310 1 0.625 0.75 0.5
311 1 0.75 0.75 0.5
312 1 0.875 0.75 0.5
313 1 3.80764e-11 0.875 0.5
314 1 0.125 0.875 0.5
315 1 0.25 0.875 0.5
316 1 0.375 0.875 0.5
317 1 0.5 0.875 0.5
318 1 0.625 0.875 0.5
319 1 0.75 0.875 0.5
320 1 0.875 0.875 0.5
321 1 1 7.32175e-10 0.625
322 1 0.125 7.32175e-10 0.625
323 1 0.25 7.32175e-10 0.625
324 1 0.375 7.32175e-10 0.625
325 1 0.5 7.32175e-10 0.625
326 1 0.625 7.32175e-10 0.625
327 1 0.75 7.32175e-10 0.625
328 1 0.875 7.32175e-10 0.625
329 1 1 0.125 0.625
330 1 0.125 0.125 0.625
331 1 0.25 0.125 0.625
332 1 0.375 0.125 0.625
333 1 0.5 0.125 0.625
334 1 0.625 0.125 0.625
335 1 0.75 0.125 0.625
336 1 0.875 0.125 0.625
337 1 1 0.25 0.625
338 1 0.125 0.25 0.625
339 1 0.25 0.25 0.625
340 1 0.375 0.25 0.625
341 1 0.5 0.25 0.625
342 1 0.625 0.25 0.625
343 1 0.75 0.25 0.625
344 1 0.875 0.25 0.625
345 1 1 0.375 0.625
346 1 0.125 0.375 0.625
347 1 0.25 0.375 0.625
348 1 0.375 0.375 0.625
349 1 0.5 0.375 0.625
350 1 0.625 0.375 0.625
351 1 0.75 0.375 0.625
352 1 0.875 0.375 0.625
353 1 1 0.5 0.625
354 1 0.125 0.5 0.625
355 1 0.25 0.5 0.625
356 1 0.375 0.5 0.625
357 1 0.5 0.5 0.625
358 1 0.625 0.5 0.625
359 1 0.75 0.5 0.625
360 1 0.875 0.5 0.625
361 1 1 0.625 0.625
362 1 0.125 0.625 0.625
363 1 0.25 0.625 0.625
364 1 0.375 0.625 0.625
365 1 0.5 0.625 0.625
366 1 0.625 0.625 0.625
367 1 0.75 0.625 0.625
368 1 0.875 0.625 0.625
369 1 6.57887e-11 0.75 0.625
370 1 0.125 0.75 0.625
371 1 0.25 0.75 0.625
372 1 0.375 0.75 0.625
373 1 0.5 0.75 0.625
374 1 0.625 0.75 0.625
375 1 0.75 0.75 0.625
376 1 0.875 0.75 0.625
377 1 1 0.875 0.625
378 1 0.125 0.875 0.625
379 1 0.25 0.875 0.625
380 1 0.375 0.875 0.625
381 1 0.5 0.875 0.625
382 1 0.625 0.875 0.625
383 1 0.75 0.875 0.625
384 1 0.875 0.875 0.625
385 1 1 2.50201e-10 0.75
386 1 0.125 2.50201e-10 0.75
387 1 0.25 2.50201e-10 0.75
388 1 0.375 2.50201e-10 0.75
389 1 0.5 2.50201e-10 0.75
390 1 0.625 2.50201e-10 0.75
391 1 0.75 2.50201e-10 0.75
392 1 0.875 2.50201e-10 0.75
393 1 8.69387e-11 0.125 0.75
394 1 0.125 0.125 0.75
395 1 0.25 0.125 0.75
396 1 0.375 0.125 0.75
397 1 0.5 0.125 0.75
398 1 0.625 0.125 0.75
399 1 0.75 0.125 0.75
400 1 0.875 0.125 0.75
401 1 7.32195e-11 0.25 0.75
402 1 0.125 0.25 0.75
403 1 0.25 0.25 0.75
404 1 0.375 0.25 0.75
405 1 0.5 0.25 0.75
406 1 0.625 0.25 0.75
407 1 0.75 0.25 0.75
408 1 0.875 0.25 0.75
409 1 1 0.375 0.75
410 1 0.125 0.375 0.75
411 1 0.25 0.375 0.75
412 1 0.375 0.375 0.75
413 1 0.5 0.375 0.75
414 1 0.625 0.375 0.75
415 1 0.75 0.375 0.75
416 1 0.875 0.375 0.75
417 1 1 0.5 0.75
418 1 0.125 0.5 0.75
419 1 0.25 0.5 0.75
420 1 0.375 0.5 0.75
421 1 0.5 0.5 0.75
422 1 0.625 0.5 0.75
423 1 0.75 0.5 0.75
424 1 0.875 0.5 0.75
425 1 1 0.625 0.75
426 1 0.125 0.625 0.75
427 1 0.25 0.625 0.75
428 1 0.375 0.625 0.75
429 1 0.5 0.625 0.75
430 1 0.625 0.625 0.75
431 1 0.75 0.625 0.75
432 1 0.875 0.625 0.75
433 1 1 0.75 0.75
434 1 0.125 0.75 0.75
435 1 0.25 0.75 0.75
436 1 0.375 0.75 0.75
437 1 0.5 0.75 0.75
438 1 0.625 0.75 0.75
439 1 0.75 0.75 0.75
440 1 0.875 0.75 0.75
441 1 1 0.875 0.75
442 1 0.125 0.875 0.75
443 1 0.25 0.875 0.75
444 1 0.375 0.875 0.75
445 1 0.5 0.875 0.75
446 1 0.625 0.875 0.75
447 1 0.75 0.875 0.75
448 1 0.875 0.875 0.75
449 1 1 4.51627e-10 0.875
450 1 0.125 4.51627e-10 0.875
451 1 0.25 4.51627e-10 0.875
452 1 0.375 4.51627e-10 0.875
453 1 0.5 4.51627e-10 0.875
454 1 0.625 4.51627e-10 0.875
455 1 0.75 4.51627e-10 0.875
456 1 0.875 4.51627e-10 0.875
457 1 1 0.125 0.875
458 1 0.125 0.125 0.875
459 1 0.25 0.125 0.875
460 1 0.375 0.125 0.875
461 1 0.5 0.125 0.875
462 1 0.625 0.125 0.875
463 1 0.75 0.125 0.875
464 1 0.875 0.125 0.875
465 1 1 0.25 0.875
466 1 0.125 0.25 0.875
467 1 0.25 0.25 0.875
468 1 0.375 0.25 0.875
469 1 0.5 0.25 0.875
470 1 0.625 0.25 0.875
471 1 0.75 0.25 0.875
472 1 0.875 0.25 0.875
473 1 1 0.375 0.875
474 1 0.125 0.375 0.875
475 1 0.25 0.375 0.875
476 1 0.375 0.375 0.875
477 1 0.5 0.375 0.875
478 1 0.625 0.375 0.875
479 1 0.75 0.375 0.875
480 1 0.875 0.375 0.875
481 1 1 0.5 0.875
482 1 0.125 0.5 0.875
483 1 0.25 0.5 0.875
484 1 0.375 0.5 0.875
485 1 0.5 0.5 0.875
486 1 0.625 0.5 0.875
487 1 0.75 0.5 0.875
488 1 0.875 0.5 0.875
489 1 1 0.625 0.875
490 1 0.125 0.625 0.875
491 1 0.25 0.625 0.875
492 1 0.375 0.625 0.875
493 1 0.5 0.625 0.875
494 1 0.625 0.625 0.875
495 1 0.75 0.625 0.875
496 1 0.875 0.625 0.875
497 1 1 0.75 0.875
498 1 0.125 0.75 0.875
499 1 0.25 0.75 0.875
500 1 0.375 0.75 0.875
501 1 0.5 0.75 0.875
502 1 0.625 0.75 0.875
503 1 0.75 0.75 0.875
504 1 0.875 0.75 0.875
505 1 1 0.875 0.875
506 1 0.125 0.875 0.875
507 1 0.25 0.875 0.875
508 1 0.375 0.875 0.875
509 1 0.5 0.875 0.875
510 1 0.625 0.875 0.875
511 1 0.75 0.875 0.875
512 1 0.875 0.875 0.875
ITEM: TIMESTEP
50000
ITEM: NUMBER OF ATOMS
512
ITEM: BOX BOUNDS xy xz yz pp pp pp
-9.8889754993090051e-02 5.6272728194908616e+01 1.4092904484957998e+01
-8.5641039987713441e-02 3.2460527756623662e+01 1.4092904484957998e+01
-8.0743146808707422e-02 2.2932873506808768e+01 8.1365421966351033e+00
ITEM: ATOMS id type xs ys zs
1 1 0.988138 -0.00174077 0.0120069
2 1 0.116573 -0.0137186 0.0103988
3 1 0.23842 -0.00135814 0.00958223
4 1 0.372076 0.00189019 0.00114783
5 1 0.504798 1.0143 -0.00667402
6 1 0.637809 1.00224 0.994097
7 1 0.753443 0.994173 0.00310802
8 1 0.883038 -0.00275054 0.994872
9 1 0.998098 0.124788 -0.0038291
10 1 0.118943 0.127444 0.997903
11 1 0.250603 0.125023 0.995768
12 1 0.370747 0.127976 -0.00248606
13 1 0.50067 0.126295 0.00793171
14 1 0.631511 0.118861 0.00403711
15 1 0.750837 0.122568 0.00407095
16 1 0.870158 0.126257 1.0032
17 1 -0.00726623 0.254133 1.00331
18 1 0.126545 0.242241 -0.0007506
19 1 0.252286 0.259019 -0.00489175
20 1 0.373968 0.243111 0.0109172
21 1 0.505774 0.239151 1.00756
22 1 0.628969 0.248353 1.00235
23 1 0.7516 0.250043 0.995555
24 1 0.880165 0.245738 0.00128911
25 1 1.00367 0.380627 0.996397
26 1 0.120363 0.381696 0.00186753
27 1 0.255395 0.37578 -0.00757686
28 1 0.373945 0.365075 1.01047
29 1 0.496127 0.38077 -0.00673039
30 1 0.616738 0.367586 1.00553
31 1 0.734747 0.376828 1.0031
32 1 0.882505 0.375257 -0.00671528
33 1 1.00347 0.507766 0.000252823
34 1 0.125657 0.497448 1.00047
35 1 0.247444 0.49357 1.0036
36 1 0.374313 0.499288 -0.00133967
37 1 0.504209 0.502355 0.999606
38 1 0.629917 0.500066 0.990711
39 1 0.761582 0.496991 0.988377
40 1 0.884122 0.49523 -0.00353326
41 1 0.990871 0.629144 0.00718983
42 1 0.128929 0.613873 0.011461
43 1 0.240816 0.614336 0.00431106
44 1 0.374272 0.620642 1.0018
45 1 0.514364 0.633 0.99082
46 1 0.638566 0.613439 -0.00449162
47 1 0.766066 0.620881 0.995431
48 1 0.871893 0.628091 1.00505
49 1 -0.000867623 0.751344 0.997816
50 1 0.127064 0.748974 0.00285497
51 1 0.245109 0.762721 -0.00632057
52 1 0.380977 0.743481 -0.00250256
53 1 0.50154 0.748427 1.00552
54 1 0.622998 0.75953 0.999571
55 1 0.753425 0.74161 1.00331
56 1 0.877282 0.748549 0.999075
57 1 -0.00273135 0.864886 1.01093
58 1 0.120798 0.87303 1.00375
59 1 0.250912 0.876339 -0.0018251
60 1 0.375647 0.878444 -0.0044133
61 1 0.489221 0.88799 1.00374
62 1 0.616038 0.878999 0.00949787
63 1 0.742583 0.877907 0.997282
64 1 0.872356 0.872217 0.00488177
65 1 0.987185 -0.00542294 0.140622
66 1 0.109162 1.00197 0.133567
67 1 0.245318 -0.00774777 0.134728
68 1 0.373312 1.00289 0.119294
69 1 0.505164 1.00055 0.123311
70 1 0.631259 -0.00348054 0.121705
71 1 0.747288 0.993718 0.130513
72 1 0.860403 0.000769888 0.137808
73 1 0.997079 0.124949 0.121129
74 1 0.128415 0.117339 0.117635
75 1 0.242794 0.115506 0.134884
76 1 0.380731 0.121733 0.125214
77 1 0.498289 0.119285 0.129109
78 1 0.623526 0.118002 0.128
79 1 0.751457 0.117365 0.120167
80 1 0.874163 0.115245 0.123296
81 1 -0.00961296 0.256196 0.124739
82 1 0.132502 0.240386 0.123247
83 1 0.249195 0.251816 0.120811
84 1 0.372739 0.242293 0.133382
85 1 0.502175 0.251018 0.126642
86 1 0.631626 0.242381 0.129466
87 1 0.756255 0.244871 0.125428
88 1 0.874823 0.243694 0.124042
89 1 0.997597 0.374626 0.119615
90 1 0.12116 0.373533 0.128163
91 1 0.241178 0.375201 0.12682
92 1 0.375933 0.374242 0.115272
93 1 0.491932 0.379934 0.126045
94 1 0.622404 0.374072 0.136579
95 1 0.757586 0.378791 0.112561
96 1 0.872912 0.389744 0.109881
97 1 0.0071486 0.496047 0.124591
98 1 0.12136 0.502495 0.129894
99 1 0.251797 0.493084 0.126897
100 1 0.367995 0.496403 0.124422
101 1 0.500207 0.500522 0.12208
102 1 0.62434 0.49711 0.130669
103 1 0.75371 0.508684 0.111419
104 1 0.879515 0.506383 0.121151
105 1 0.992088 0.632056 0.129874
106 1 0.120173 0.630326 0.135941
107 1 0.257658 0.626071 0.113965
108 1 0.382222 0.622387 0.124259
109 1 0.508606 0.621521 0.116791
110 1 0.63107 0.630751 0.111639
111 1 0.74127 0.630602 0.130689
112 1 0.864383 0.623615 0.137672
113 1 -0.00302106 0.752875 0.125584
114 1 0.128144 0.748526 0.12631
115 1 0.258845 0.745714 0.112289
116 1 0.375299 0.756256 0.111476
117 1 0.494637 0.748381 0.130121
118 1 0.623217 0.752183 0.116018
119 1 0.74321 0.752747 0.123417
120 1 0.870111 0.750428 0.118608
121 1 0.996695 0.876726 0.122955
122 1 0.115549 0.881394 0.127283
123 1 0.248235 0.868552 0.125711
124 1 0.374174 0.871246 0.123637
125 1 0.492055 0.877208 0.13176
126 1 0.626334 0.871214 0.131394
127 1 0.747975 0.872193 0.126632
128 1 0.867746 0.878964 0.126476
129 1 0.996255 0.0103919 0.251163
130 1 0.128212 -0.00117998 0.253338
131 1 0.253574 1.00299 0.247612
132 1 0.377916 -0.00108233 0.244386
133 1 0.493478 1.00727 0.244237
134 1 0.621187 1.0032 0.248284
135 1 0.7487 -0.00518604 0.251461
136 1 0.864541 0.00345607 0.263961
137 1 0.998716 0.127627 0.254142
138 1 0.126987 0.121534 0.251079
139 1 0.252897 0.124688 0.244612
140 1 0.375479 0.121878 0.249734
141 1 0.498409 0.124435 0.252615
142 1 0.635937 0.121514 0.248078
143 1 0.752364 0.128312 0.251817
144 1 0.869164 0.134279 0.249156
145 1 1.00221 0.255577 0.241642
146 1 0.124755 0.257325 0.242917
147 1 0.244808 0.24493 0.249959
148 1 0.362532 0.261989 0.24489
149 1 0.509016 0.24101 0.255931
150 1 0.6311 0.251272 0.24958
151 1 0.755229 0.254432 0.243338
152 1 0.872257 0.257437 0.241529
153 1 -0.0019607 0.382785 0.245354
154 1 0.121734 0.368357 0.262636
155 1 0.241387 0.388117 0.247467
156 1 0.36926 0.375249 0.248539
157 1 0.498862 0.381608 0.238046
158 1 0.632249 0.372582 0.253167
159 1 0.760749 0.377388 0.244772
160 1 0.874569 0.369346 0.258094
161 1 -0.00464928 0.495609 0.249427
162 1 0.129279 0.506799 0.247876
163 1 0.251259 0.50167 0.252697
164 1 0.378913 0.497526 0.247552
165 1 0.497804 0.503298 0.245533
166 1 0.632751 0.501192 0.238908
167 1 0.748673 0.506542 0.245278
168 1 0.876554 0.494197 0.252046
169 1 -0.00413208 0.62066 0.253142
170 1 0.117831 0.639418 0.259808
171 1 0.245448 0.633102 0.248345
172 1 0.382295 0.623627 0.241663
173 1 0.510409 0.627845 0.241264
174 1 0.624985 0.620157 0.257309
175 1 0.750989 0.623052 0.255303
176 1 0.87964 0.62777 0.239927
177 1 0.00159215 0.756768 0.242988
178 1 0.122445 0.761843 0.255408
179 1 0.253487 0.750848 0.252831
180 1 0.381162 0.752545 0.247525
181 1 0.499942 0.74681 0.25379
182 1 0.626877 0.743914 0.253511
183 1 0.755178 0.741787 0.249709
184 1 0.877185 0.750563 0.249528
185 1 0.980356 0.88683 0.247423
186 1 0.12412 0.87863 0.25425
187 1 0.261713 0.868672 0.251342
188 1 0.380277 0.872066 0.252443
189 1 0.495972 0.870452 0.258657
190 1 0.616578 0.884518 0.250475
191 1 0.740282 0.876254 0.251428
192 1 0.863913 0.879574 0.252688
193 1 0.99701 1.00152 0.380608
194 1 0.127178 -0.0107689 0.37953
195 1 0.253213 0.998009 0.370832
196 1 0.381132 0.995494 0.371329
197 1 0.495528 0.00375328 0.376975
198 1 0.62647 0.999299 0.374019
199 1 0.7396 0.00656946 0.380785
200 1 0.877116 1.00955 0.37073
201 1 0.00672892 0.120581 0.369454
202 1 0.123761 0.11761 0.37817
203 1 0.254504 0.121229 0.37768
204 1 0.371813 0.129598 0.368114
205 1 0.500766 0.131709 0.371055
206 1 0.622883 0.12291 0.375201
207 1 0.751485 0.122128 0.38068
208 1 0.871323 0.13354 0.370777
209 1 0.000462254 0.251335 0.373473
210 1 0.132422 0.24511 0.370033
211 1 0.251387 0.255473 0.365494
212 1 0.371993 0.247829 0.373687
213 1 0.493246 0.255589 0.3743
214 1 0.622368 0.249954 0.370391
215 1 0.745842 0.246664 0.373889
216 1 0.886065 0.243232 0.365022
217 1 -0.00241108 0.385896 0.375158
218 1 0.114143 0.375898 0.385495
219 1 0.251458 0.37372 0.376024
220 1 0.388613 0.371188 0.36194
221 1 0.503348 0.379212 0.362207
222 1 0.634658 0.378046 0.373167
223 1 0.757918 0.37235 0.368746
224 1 0.877568 0.383761 0.368854
225 1 1.0063 0.501973 0.376476
226 1 0.130521 0.502185 0.38128
227 1 0.256452 0.489728 0.374695
228 1 0.376603 0.49506 0.375443
229 1 0.506436 0.502918 0.366623
230 1 0.635843 0.495345 0.37027
231 1 0.756185 0.496824 0.38144
232 1 0.879701 0.502878 0.373323
233 1 0.99848 0.62648 0.377136
234 1 0.129459 0.631454 0.375042
235 1 0.25888 0.618834 0.363217
236 1 0.371555 0.621476 0.376774
237 1 0.500222 0.622309 0.370476
238 1 0.620012 0.627184 0.37579
239 1 0.752324 0.625197 0.372123
240 1 0.877724 0.627917 0.375345
241 1 -0.00457087 0.757618 0.366438
242 1 0.123095 0.74872 0.384715
243 1 0.252856 0.742787 0.376148
244 1 0.381318 0.74921 0.373302
245 1 0.498052 0.745809 0.37754
246 1 0.619168 0.747272 0.385429
247 1 0.746633 0.749961 0.373821
248 1 0.874956 0.763554 0.366052
249 1 1.0042 0.884822 0.375497
250 1 0.133353 0.871917 0.370668
251 1 0.254445 0.862 0.37971
252 1 0.368942 0.874511 0.375499
253 1 0.503001 0.869344 0.371098
254 1 0.613039 0.881753 0.369918
255 1 0.739035 0.86872 0.373285
256 1 0.870191 0.876961 0.376978
257 1 1.0044 0.996407 0.49883
258 1 0.118741 1.00455 0.509102
259 1 0.251946 1.00798 0.489074
260 1 0.376358 1.00385 0.502755
261 1 0.497595 0.00234525 0.507165
262 1 0.6213 0.00213535 0.500611
263 1 0.751827 0.994502 0.50897
264 1 0.875606 1.00617 0.4936
265 1 -0.00593846 0.123793 0.502261
266 1 0.124247 0.125015 0.500381
267 1 0.246091 0.129718 0.502175
268 1 0.381538 0.121465 0.503491
269 1 0.503411 0.120656 0.506077
270 1 0.627628 0.11998 0.490281
271 1 0.741279 0.126184 0.501941
272 1 0.881785 0.116929 0.4971
273 1 0.000637661 0.261643 0.487043
274 1 0.126549 0.25309 0.490625
275 1 0.25904 0.245412 0.508055
276 1 0.381473 0.244768 0.49699
277 1 0.497055 0.244587 0.511596
278 1 0.622371 0.253813 0.502924
279 1 0.75937 0.230126 0.513785
280 1 0.866186 0.257893 0.494813
281 1 1.01027 0.365906 0.512612
282 1 0.129079 0.378724 0.499556
283 1 0.25759 0.370867 0.496109
284 1 0.388358 0.369099 0.494005
285 1 0.504354 0.377057 0.493022
286 1 0.628611 0.372085 0.496379
287 1 0.739615 0.373557 0.503261
288 1 0.874551 0.376392 0.506077
289 1 0.996804 0.498734 0.509568
290 1 0.120987 0.498166 0.504308
291 1 0.250112 0.507257 0.491352
292 1 0.368324 0.504319 0.500873
293 1 0.504073 0.500013 0.496408
294 1 0.632427 0.505157 0.502262
295 1 0.75412 0.496304 0.49582
296 1 0.874853 0.5004 0.501675
297 1 1.00475 0.626262 0.488267
298 1 0.11473 0.627674 0.506273
299 1 0.247262 0.626259 0.49723
300 1 0.379859 0.621319 0.500296
301 1 0.497325 0.624432 0.497945
302 1 0.618667 0.629221 0.509627
303 1 0.757391 0.62398 0.49285
304 1 0.876557 0.625138 0.500849
305 1 -0.00129076 0.750238 0.493614
306 1 0.124484 0.753155 0.51095
307 1 0.252104 0.74743 0.506326
308 1 0.369341 0.755631 0.49885
309 1 0.488764 0.746544 0.504594
310 1 0.607434 0.75893 0.49933
311 1 0.750757 0.748461 0.4971
312 1 0.869412 0.758334 0.492396
313 1 0.00116011 0.875041 0.503457
314 1 0.132025 0.872887 0.503974
315 1 0.241111 0.886072 0.500377
316 1 0.372892 0.868478 0.506828
317 1 0.499021 0.880024 0.496452
318 1 0.618926 0.878844 0.498131
319 1 0.746272 0.874964 0.497449
320 1 0.877942 0.873441 0.496463
321 1 0.995081 0.00740064 0.621415
322 1 0.1253 -0.00628131 0.636
323 1 0.25902 1.00019 0.624251
324 1 0.373942 1.00103 0.629899
325 1 0.50507 0.999237 0.625237
326 1 0.627371 0.00140634 0.619291
327 1 0.75129 0.991678 0.628947
328 1 0.879176 0.00525701 0.617944
329 1 0.00824993 0.118856 0.621332
330 1 0.130024 0.117313 0.634339
331 1 0.249061 0.126257 0.628561
332 1 0.387116 0.116172 0.633581
333 1 0.502085 0.119123 0.632042
334 1 0.620054 0.127242 0.620809
335 1 0.739011 0.118976 0.634342
336 1 0.870474 0.131434 0.626444
337 1 1.00831 0.243244 0.621225
338 1 0.133735 0.247518 0.61858
339 1 0.253941 0.248068 0.628386
340 1 0.376487 0.240394 0.622778
341 1 0.500397 0.244741 0.628571
342 1 0.629619 0.253152 0.616739
343 1 0.744324 0.249939 0.627185
344 1 0.869654 0.250801 0.628026
345 1 1.01343 0.37517 0.626112
346 1 0.137203 0.367979 0.619086
347 1 0.266073 0.359074 0.621707
348 1 0.381117 0.368191 0.619498
349 1 0.494714 0.386679 0.621069
350 1 0.620291 0.375069 0.631676
351 1 0.747667 0.373361 0.627728
352 1 0.87875 0.377229 0.626497
353 1 1.0048 0.502591 0.627769
354 1 0.128375 0.49534 0.624215
355 1 0.249214 0.49522 0.617299
356 1 0.356936 0.510445 0.634906
357 1 0.494954 0.507915 0.623264
358 1 0.63328 0.494314 0.627905
359 1 0.758819 0.505063 0.624185
360 1 0.868201 0.512504 0.631101
361 1 1.00341 0.629862 0.620944
362 1 0.120816 0.628496 0.623268
363 1 0.241377 0.629224 0.627668
364 1 0.366983 0.626083 0.630539
365 1 0.496101 0.622923 0.636595
366 1 0.627716 0.617255 0.628016
367 1 0.751746 0.629693 0.616266
368 1 0.887391 0.632407 0.613312
369 1 -0.00704774 0.758042 0.6207
370 1 0.124709 0.750793 0.627587
371 1 0.249803 0.741161 0.629784
372 1 0.372978 0.750056 0.626165
373 1 0.501174 0.745082 0.62476
374 1 0.628425 0.744485 0.62189
375 1 0.747609 0.748179 0.621416
376 1 0.881752 0.753248 0.605982
377 1 1.00517 0.878816 0.623201
378 1 0.130366 0.876273 0.631031
379 1 0.253827 0.885918 0.620842
380 1 0.384557 0.870811 0.621574
381 1 0.504467 0.87536 0.623053
382 1 0.629784 0.873725 0.616425
383 1 0.744689 0.875493 0.629076
384 1 0.875516 0.875533 0.621858
385 1 -0.00452581 0.00735933 0.753779
386 1 0.12695 -0.00396886 0.759061
387 1 0.251897 -0.00553311 0.756446
388 1 0.365558 -0.00921149 0.76076
389 1 0.499175 0.987754 0.753783
390 1 0.617206 0.000452515 0.753009
391 1 0.749881 -0.00498619 0.758591
392 1 0.884292 0.000335544 0.741783
393 1 1.01035 0.124795 0.747578
394 1 0.128965 0.123731 0.754626
395 1 0.260859 0.12097 0.741345
396 1 0.380227 0.108683 0.760254
397 1 0.498595 0.120419 0.759299
398 1 0.626131 0.124438 0.741266
399 1 0.745257 0.124403 0.755211
400 1 0.88672 0.119514 0.744745
401 1 0.994291 0.250567 0.75192
402 1 0.129946 0.243366 0.750038
403 1 0.263129 0.234919 0.749487
404 1 0.376467 0.247693 0.759391
405 1 0.50051 0.25366 0.740697
406 1 0.62189 0.253993 0.749593
407 1 0.753314 0.241954 0.745862
408 1 0.877891 0.244522 0.752468
409 1 0.0102406 0.366664 0.746406
410 1 0.135368 0.365407 0.746011
411 1 0.255637 0.375757 0.746318
412 1 0.370882 0.381962 0.743677
413 1 0.490106 0.374025 0.753956
414 1 0.631272 0.375072 0.747098
415 1 0.755528 0.36792 0.745333
416 1 0.886236 0.372178 0.748628
417 1 1.00862 0.499676 0.747771
418 1 0.135686 0.493293 0.749203
419 1 0.244925 0.506441 0.750425
420 1 0.373987 0.50175 0.748092
421 1 0.497223 0.499917 0.75359
422 1 0.623687 0.490775 0.758625
423 1 0.758124 0.493102 0.749747
424 1 0.882633 0.493892 0.753048
425 1 -8.78969e-05 0.631008 0.742921
426 1 0.115335 0.625311 0.75212
427 1 0.23675 0.629331 0.75046
428 1 0.371948 0.619905 0.758044
429 1 0.488485 0.636972 0.751549
430 1 0.636873 0.616788 0.742187
431 1 0.750662 0.627958 0.746199
432 1 0.873245 0.62561 0.744321
433 1 0.987328 0.767947 0.748579
434 1 0.123923 0.758565 0.743953
435 1 0.23844 0.750203 0.756988
436 1 0.363658 0.753453 0.745755
437 1 0.497622 0.74544 0.757219
438 1 0.617939 0.74367 0.751568
439 1 0.750622 0.751238 0.741105
440 1 0.866375 0.74809 0.748568
441 1 0.00212757 0.88036 0.745647
442 1 0.124747 0.873179 0.756646
443 1 0.242982 0.879334 0.755828
444 1 0.378708 0.876897 0.742057
445 1 0.50716 0.869777 0.742528
446 1 0.618301 0.875415 0.755184
447 1 0.74118 0.871958 0.755673
448 1 0.86578 0.869989 0.758692
449 1 0.00434129 0.997702 0.881391
450 1 0.123367 0.999979 0.882214
451 1 0.246669 1.00327 0.877587
452 1 0.38752 0.988373 0.884053
453 1 0.490213 1.00967 0.881884
454 1 0.62024 1.0041 0.874254
455 1 0.757478 0.999141 0.869636
456 1 0.874025 1.00922 0.879313
457 1 0.000905755 0.126413 0.877001
458 1 0.122646 0.128667 0.877465
459 1 0.249957 0.118399 0.869184
460 1 0.367707 0.123324 0.876185
461 1 0.500111 0.138513 0.864559
462 1 0.621181 0.126809 0.873077
463 1 0.744232 0.127195 0.877549
464 1 0.877537 0.131842 0.868459
465 1 0.993179 0.254644 0.881153
466 1 0.125959 0.246685 0.871258
467 1 0.251013 0.245057 0.881687
468 1 0.372196 0.251242 0.877276
469 1 0.497025 0.249411 0.87901
470 1 0.627835 0.253291 0.868497
471 1 0.747547 0.257284 0.876999
472 1 0.880308 0.248438 0.874918
473 1 1.00447 0.377332 0.866786
474 1 0.12832 0.375016 0.876306
475 1 0.245129 0.367679 0.875521
476 1 0.375455 0.37585 0.875666
477 1 0.493246 0.363859 0.881665
478 1 0.624333 0.375422 0.874709
479 1 0.743312 0.381571 0.873918
480 1 0.865354 0.379352 0.88036
481 1 0.00991822 0.509834 0.869474
482 1 0.133891 0.500513 0.868506
483 1 0.245373 0.511942 0.872371
484 1 0.376316 0.496645 0.875538
485 1 0.50707 0.50417 0.867645
486 1 0.6169 0.501679 0.878423
487 1 0.746618 0.504566 0.871993
488 1 0.877561 0.501133 0.869067
489 1 0.00481832 0.628658 0.87691
490 1 0.123352 0.626444 0.883382
491 1 0.240615 0.631651 0.877721
492 1 0.364933 0.624553 0.886077
493 1 0.4911 0.636661 0.876639
494 1 0.628002 0.624895 0.867448
495 1 0.764201 0.623252 0.869391
496 1 0.890252 0.624854 0.867693
497 1 -0.00518051 0.760225 0.872754
498 1 0.116053 0.75567 0.877175
499 1 0.234961 0.754565 0.880221
500 1 0.371009 0.751419 0.871932
501 1 0.501136 0.748607 0.871392
502 1 0.631039 0.748411 0.872821
503 1 0.749834 0.747172 0.878221
504 1 0.874008 0.749319 0.87418
505 1 0.989912 0.885476 0.874331
506 1 0.123384 0.872566 0.881714
507 1 0.251961 0.874003 0.872263
508 1 0.380689 0.867991 0.870987
509 1 0.500605 0.862428 0.8827
510 1 0.613083 0.879332 0.880195
511 1 0.747496 0.863051 0.881841
512 1 0.868945 0.884383 0.878317
ITEM: TIMESTEP
100000
ITEM: NUMBER OF ATOMS
512
ITEM: BOX BOUNDS xy xz yz pp pp pp
-9.6724146430471336e-02 5.6266231369223242e+01 1.4090738876396280e+01
-8.3765567957984288e-02 3.2457401969907508e+01 1.4090738876396280e+01