FCC(001) cell with dimension 8 x 8 x 8

512  atoms
  1  atom types

     0.00000000     27.98802947 xlo xhi
     0.00000000     24.23834452 ylo yhi
     0.00000000     22.85213036 zlo zhi
    13.99401473     13.99401473      8.07944817 xy xz yz

Atoms

  1  1   0.00000000     0.0000000000     0.00000000
  2  1   3.49850368     0.0000000000     0.00000000
  3  1   6.99700737     0.0000000000     0.00000000
  4  1   10.49551105     0.0000000000     0.00000000
  5  1   13.99401474     0.0000000000     0.00000000
  6  1   17.49251842     0.0000000000     0.00000000
  7  1   20.99102210     0.0000000000     0.00000000
  8  1   24.48952579     0.0000000000     0.00000000
  9  1   1.74925185     3.0297930736     0.00000000
 10  1   5.24775553     3.0297930736     0.00000000
 11  1   8.74625920     3.0297930736     0.00000000
 12  1   12.24476290     3.0297930736     0.00000000
 13  1   15.74326658     3.0297930736     0.00000000
 14  1   19.24177027     3.0297930736     0.00000000
 15  1   22.74027395     3.0297930736     0.00000000
 16  1   26.23877763     3.0297930736     0.00000000
 17  1   3.49850368     6.0595861371     0.00000000
 18  1   6.99700737     6.0595861371     0.00000000
 19  1   10.49551105     6.0595861371     0.00000000
 20  1   13.99401474     6.0595861371     0.00000000
 21  1   17.49251842     6.0595861371     0.00000000
 22  1   20.99102210     6.0595861371     0.00000000
 23  1   24.48952579     6.0595861371     0.00000000
 24  1   27.98802947     6.0595861371     0.00000000
 25  1   5.24775553     9.0893792007     0.00000000
 26  1   8.74625920     9.0893792007     0.00000000
 27  1   12.24476290     9.0893792007     0.00000000
 28  1   15.74326658     9.0893792007     0.00000000
 29  1   19.24177027     9.0893792007     0.00000000
 30  1   22.74027395     9.0893792007     0.00000000
 31  1   26.23877763     9.0893792007     0.00000000
 32  1   29.73728132     9.0893792007     0.00000000
 33  1   6.99700737     12.1191722642     0.00000000
 34  1   10.49551105     12.1191722642     0.00000000
 35  1   13.99401474     12.1191722642     0.00000000
 36  1   17.49251842     12.1191722642     0.00000000
 37  1   20.99102210     12.1191722642     0.00000000
 38  1   24.48952579     12.1191722642     0.00000000
 39  1   27.98802947     12.1191722642     0.00000000
 40  1   31.48653317     12.1191722642     0.00000000
 41  1   8.74625920     15.1489653478     0.00000000
 42  1   12.24476290     15.1489653478     0.00000000
 43  1   15.74326658     15.1489653478     0.00000000
 44  1   19.24177027     15.1489653478     0.00000000
 45  1   22.74027395     15.1489653478     0.00000000
 46  1   26.23877763     15.1489653478     0.00000000
 47  1   29.73728132     15.1489653478     0.00000000
 48  1   33.23578500     15.1489653478     0.00000000
 49  1   10.49551105     18.1787584013     0.00000000
 50  1   13.99401474     18.1787584013     0.00000000
 51  1   17.49251842     18.1787584013     0.00000000
 52  1   20.99102210     18.1787584013     0.00000000
 53  1   24.48952579     18.1787584013     0.00000000
 54  1   27.98802947     18.1787584013     0.00000000
 55  1   31.48653317     18.1787584013     0.00000000
 56  1   34.98503685     18.1787584013     0.00000000
 57  1   12.24476290     21.2085514749     0.00000000
 58  1   15.74326658     21.2085514749     0.00000000
 59  1   19.24177027     21.2085514749     0.00000000
 60  1   22.74027395     21.2085514749     0.00000000
 61  1   26.23877763     21.2085514749     0.00000000
 62  1   29.73728132     21.2085514749     0.00000000
 63  1   33.23578500     21.2085514749     0.00000000
 64  1   36.73428869     21.2085514749     0.00000000
 65  1   1.74925185     1.0099310379     2.85651629
 66  1   5.24775553     1.0099310379     2.85651629
 67  1   8.74625920     1.0099310379     2.85651629
 68  1   12.24476290     1.0099310379     2.85651629
 69  1   15.74326658     1.0099310379     2.85651629
 70  1   19.24177027     1.0099310379     2.85651629
 71  1   22.74027395     1.0099310379     2.85651629
 72  1   26.23877763     1.0099310379     2.85651629
 73  1   3.49850368     4.0397240914     2.85651629
 74  1   6.99700737     4.0397240914     2.85651629
 75  1   10.49551105     4.0397240914     2.85651629
 76  1   13.99401474     4.0397240914     2.85651629
 77  1   17.49251842     4.0397240914     2.85651629
 78  1   20.99102210     4.0397240914     2.85651629
 79  1   24.48952579     4.0397240914     2.85651629
 80  1   27.98802947     4.0397240914     2.85651629
 81  1   5.24775553     7.0695171650     2.85651629
 82  1   8.74625920     7.0695171650     2.85651629
 83  1   12.24476290     7.0695171650     2.85651629
 84  1   15.74326658     7.0695171650     2.85651629
 85  1   19.24177027     7.0695171650     2.85651629
 86  1   22.74027395     7.0695171650     2.85651629
 87  1   26.23877763     7.0695171650     2.85651629
 88  1   29.73728132     7.0695171650     2.85651629
 89  1   6.99700737     10.0993102285     2.85651629
 90  1   10.49551105     10.0993102285     2.85651629
 91  1   13.99401474     10.0993102285     2.85651629
 92  1   17.49251842     10.0993102285     2.85651629
 93  1   20.99102210     10.0993102285     2.85651629
 94  1   24.48952579     10.0993102285     2.85651629
 95  1   27.98802947     10.0993102285     2.85651629
 96  1   31.48653317     10.0993102285     2.85651629
 97  1   8.74625920     13.1291032921     2.85651629
 98  1   12.24476290     13.1291032921     2.85651629
 99  1   15.74326658     13.1291032921     2.85651629
100  1   19.24177027     13.1291032921     2.85651629
101  1   22.74027395     13.1291032921     2.85651629
102  1   26.23877763     13.1291032921     2.85651629
103  1   29.73728132     13.1291032921     2.85651629
104  1   33.23578500     13.1291032921     2.85651629
105  1   10.49551105     16.1588963556     2.85651629
106  1   13.99401474     16.1588963556     2.85651629
107  1   17.49251842     16.1588963556     2.85651629
108  1   20.99102210     16.1588963556     2.85651629
109  1   24.48952579     16.1588963556     2.85651629
110  1   27.98802947     16.1588963556     2.85651629
111  1   31.48653317     16.1588963556     2.85651629
112  1   34.98503685     16.1588963556     2.85651629
113  1   12.24476290     19.1886894292     2.85651629
114  1   15.74326658     19.1886894292     2.85651629
115  1   19.24177027     19.1886894292     2.85651629
116  1   22.74027395     19.1886894292     2.85651629
117  1   26.23877763     19.1886894292     2.85651629
118  1   29.73728132     19.1886894292     2.85651629
119  1   33.23578500     19.1886894292     2.85651629
120  1   36.73428869     19.1886894292     2.85651629
121  1   13.99401474     22.2184824827     2.85651629
122  1   17.49251842     22.2184824827     2.85651629
123  1   20.99102210     22.2184824827     2.85651629
124  1   24.48952579     22.2184824827     2.85651629
125  1   27.98802947     22.2184824827     2.85651629
126  1   31.48653317     22.2184824827     2.85651629
127  1   34.98503685     22.2184824827     2.85651629
128  1   38.48354052     22.2184824827     2.85651629
129  1   3.49850368     2.0198620457     5.71303260
130  1   6.99700737     2.0198620457     5.71303260
131  1   10.49551105     2.0198620457     5.71303260
132  1   13.99401474     2.0198620457     5.71303260
133  1   17.49251842     2.0198620457     5.71303260
134  1   20.99102210     2.0198620457     5.71303260
135  1   24.48952579     2.0198620457     5.71303260
136  1   27.98802947     2.0198620457     5.71303260
137  1   5.24775553     5.0496551293     5.71303260
138  1   8.74625920     5.0496551293     5.71303260
139  1   12.24476290     5.0496551293     5.71303260
140  1   15.74326658     5.0496551293     5.71303260
141  1   19.24177027     5.0496551293     5.71303260
142  1   22.74027395     5.0496551293     5.71303260
143  1   26.23877763     5.0496551293     5.71303260
144  1   29.73728132     5.0496551293     5.71303260
145  1   6.99700737     8.0794481828     5.71303260
146  1   10.49551105     8.0794481828     5.71303260
147  1   13.99401474     8.0794481828     5.71303260
148  1   17.49251842     8.0794481828     5.71303260
149  1   20.99102210     8.0794481828     5.71303260
150  1   24.48952579     8.0794481828     5.71303260
151  1   27.98802947     8.0794481828     5.71303260
152  1   31.48653317     8.0794481828     5.71303260
153  1   8.74625920     11.1092412564     5.71303260
154  1   12.24476290     11.1092412564     5.71303260
155  1   15.74326658     11.1092412564     5.71303260
156  1   19.24177027     11.1092412564     5.71303260
157  1   22.74027395     11.1092412564     5.71303260
158  1   26.23877763     11.1092412564     5.71303260
159  1   29.73728132     11.1092412564     5.71303260
160  1   33.23578500     11.1092412564     5.71303260
161  1   10.49551105     14.1390343199     5.71303260
162  1   13.99401474     14.1390343199     5.71303260
163  1   17.49251842     14.1390343199     5.71303260
164  1   20.99102210     14.1390343199     5.71303260
165  1   24.48952579     14.1390343199     5.71303260
166  1   27.98802947     14.1390343199     5.71303260
167  1   31.48653317     14.1390343199     5.71303260
168  1   34.98503685     14.1390343199     5.71303260
169  1   12.24476290     17.1688273835     5.71303260
170  1   15.74326658     17.1688273835     5.71303260
171  1   19.24177027     17.1688273835     5.71303260
172  1   22.74027395     17.1688273835     5.71303260
173  1   26.23877763     17.1688273835     5.71303260
174  1   29.73728132     17.1688273835     5.71303260
175  1   33.23578500     17.1688273835     5.71303260
176  1   36.73428869     17.1688273835     5.71303260
177  1   13.99401474     20.1986204470     5.71303260
178  1   17.49251842     20.1986204470     5.71303260
179  1   20.99102210     20.1986204470     5.71303260
180  1   24.48952579     20.1986204470     5.71303260
181  1   27.98802947     20.1986204470     5.71303260
182  1   31.48653317     20.1986204470     5.71303260
183  1   34.98503685     20.1986204470     5.71303260
184  1   38.48354052     20.1986204470     5.71303260
185  1   15.74326658     23.2284135106     5.71303260
186  1   19.24177027     23.2284135106     5.71303260
187  1   22.74027395     23.2284135106     5.71303260
188  1   26.23877763     23.2284135106     5.71303260
189  1   29.73728132     23.2284135106     5.71303260
190  1   33.23578500     23.2284135106     5.71303260
191  1   36.73428869     23.2284135106     5.71303260
192  1   40.23279237     23.2284135106     5.71303260
193  1   5.24775553     3.0297930736     8.56954889
194  1   8.74625920     3.0297930736     8.56954889
195  1   12.24476290     3.0297930736     8.56954889
196  1   15.74326658     3.0297930736     8.56954889
197  1   19.24177027     3.0297930736     8.56954889
198  1   22.74027395     3.0297930736     8.56954889
199  1   26.23877763     3.0297930736     8.56954889
200  1   29.73728132     3.0297930736     8.56954889
201  1   6.99700737     6.0595861371     8.56954889
202  1   10.49551105     6.0595861371     8.56954889
203  1   13.99401474     6.0595861371     8.56954889
204  1   17.49251842     6.0595861371     8.56954889
205  1   20.99102210     6.0595861371     8.56954889
206  1   24.48952579     6.0595861371     8.56954889
207  1   27.98802947     6.0595861371     8.56954889
208  1   31.48653317     6.0595861371     8.56954889
209  1   8.74625920     9.0893792007     8.56954889
210  1   12.24476290     9.0893792007     8.56954889
211  1   15.74326658     9.0893792007     8.56954889
212  1   19.24177027     9.0893792007     8.56954889
213  1   22.74027395     9.0893792007     8.56954889
214  1   26.23877763     9.0893792007     8.56954889
215  1   29.73728132     9.0893792007     8.56954889
216  1   33.23578500     9.0893792007     8.56954889
217  1   10.49551105     12.1191722642     8.56954889
218  1   13.99401474     12.1191722642     8.56954889
219  1   17.49251842     12.1191722642     8.56954889
220  1   20.99102210     12.1191722642     8.56954889
221  1   24.48952579     12.1191722642     8.56954889
222  1   27.98802947     12.1191722642     8.56954889
223  1   31.48653317     12.1191722642     8.56954889
224  1   34.98503685     12.1191722642     8.56954889
225  1   12.24476290     15.1489653478     8.56954889
226  1   15.74326658     15.1489653478     8.56954889
227  1   19.24177027     15.1489653478     8.56954889
228  1   22.74027395     15.1489653478     8.56954889
229  1   26.23877763     15.1489653478     8.56954889
230  1   29.73728132     15.1489653478     8.56954889
231  1   33.23578500     15.1489653478     8.56954889
232  1   36.73428869     15.1489653478     8.56954889
233  1   13.99401474     18.1787584013     8.56954889
234  1   17.49251842     18.1787584013     8.56954889
235  1   20.99102210     18.1787584013     8.56954889
236  1   24.48952579     18.1787584013     8.56954889
237  1   27.98802947     18.1787584013     8.56954889
238  1   31.48653317     18.1787584013     8.56954889
239  1   34.98503685     18.1787584013     8.56954889
240  1   38.48354052     18.1787584013     8.56954889
241  1   15.74326658     21.2085514749     8.56954889
242  1   19.24177027     21.2085514749     8.56954889
243  1   22.74027395     21.2085514749     8.56954889
244  1   26.23877763     21.2085514749     8.56954889
245  1   29.73728132     21.2085514749     8.56954889
246  1   33.23578500     21.2085514749     8.56954889
247  1   36.73428869     21.2085514749     8.56954889
248  1   40.23279237     21.2085514749     8.56954889
249  1   17.49251842     24.2383445384     8.56954889
250  1   20.99102210     24.2383445384     8.56954889
251  1   24.48952579     24.2383445384     8.56954889
252  1   27.98802947     24.2383445384     8.56954889
253  1   31.48653317     24.2383445384     8.56954889
254  1   34.98503685     24.2383445384     8.56954889
255  1   38.48354052     24.2383445384     8.56954889
256  1   41.98204422     24.2383445384     8.56954889
257  1   6.99700737     4.0397240914     11.42606518
258  1   10.49551105     4.0397240914     11.42606518
259  1   13.99401474     4.0397240914     11.42606518
260  1   17.49251842     4.0397240914     11.42606518
261  1   20.99102210     4.0397240914     11.42606518
262  1   24.48952579     4.0397240914     11.42606518
263  1   27.98802947     4.0397240914     11.42606518
264  1   31.48653317     4.0397240914     11.42606518
265  1   8.74625920     7.0695171650     11.42606518
266  1   12.24476290     7.0695171650     11.42606518
267  1   15.74326658     7.0695171650     11.42606518
268  1   19.24177027     7.0695171650     11.42606518
269  1   22.74027395     7.0695171650     11.42606518
270  1   26.23877763     7.0695171650     11.42606518
271  1   29.73728132     7.0695171650     11.42606518
272  1   33.23578500     7.0695171650     11.42606518
273  1   10.49551105     10.0993102285     11.42606518
274  1   13.99401474     10.0993102285     11.42606518
275  1   17.49251842     10.0993102285     11.42606518
276  1   20.99102210     10.0993102285     11.42606518
277  1   24.48952579     10.0993102285     11.42606518
278  1   27.98802947     10.0993102285     11.42606518
279  1   31.48653317     10.0993102285     11.42606518
280  1   34.98503685     10.0993102285     11.42606518
281  1   12.24476290     13.1291032921     11.42606518
282  1   15.74326658     13.1291032921     11.42606518
283  1   19.24177027     13.1291032921     11.42606518
284  1   22.74027395     13.1291032921     11.42606518
285  1   26.23877763     13.1291032921     11.42606518
286  1   29.73728132     13.1291032921     11.42606518
287  1   33.23578500     13.1291032921     11.42606518
288  1   36.73428869     13.1291032921     11.42606518
289  1   13.99401474     16.1588963556     11.42606518
290  1   17.49251842     16.1588963556     11.42606518
291  1   20.99102210     16.1588963556     11.42606518
292  1   24.48952579     16.1588963556     11.42606518
293  1   27.98802947     16.1588963556     11.42606518
294  1   31.48653317     16.1588963556     11.42606518
295  1   34.98503685     16.1588963556     11.42606518
296  1   38.48354052     16.1588963556     11.42606518
297  1   15.74326658     19.1886894292     11.42606518
298  1   19.24177027     19.1886894292     11.42606518
299  1   22.74027395     19.1886894292     11.42606518
300  1   26.23877763     19.1886894292     11.42606518
301  1   29.73728132     19.1886894292     11.42606518
302  1   33.23578500     19.1886894292     11.42606518
303  1   36.73428869     19.1886894292     11.42606518
304  1   40.23279237     19.1886894292     11.42606518
305  1   17.49251842     22.2184824827     11.42606518
306  1   20.99102210     22.2184824827     11.42606518
307  1   24.48952579     22.2184824827     11.42606518
308  1   27.98802947     22.2184824827     11.42606518
309  1   31.48653317     22.2184824827     11.42606518
310  1   34.98503685     22.2184824827     11.42606518
311  1   38.48354052     22.2184824827     11.42606518
312  1   41.98204422     22.2184824827     11.42606518
313  1   19.24177027     25.2482755663     11.42606518
314  1   22.74027395     25.2482755663     11.42606518
315  1   26.23877763     25.2482755663     11.42606518
316  1   29.73728132     25.2482755663     11.42606518
317  1   33.23578500     25.2482755663     11.42606518
318  1   36.73428869     25.2482755663     11.42606518
319  1   40.23279237     25.2482755663     11.42606518
320  1   43.73129605     25.2482755663     11.42606518
321  1   8.74625920     5.0496551293     14.28258149
322  1   12.24476290     5.0496551293     14.28258149
323  1   15.74326658     5.0496551293     14.28258149
324  1   19.24177027     5.0496551293     14.28258149
325  1   22.74027395     5.0496551293     14.28258149
326  1   26.23877763     5.0496551293     14.28258149
327  1   29.73728132     5.0496551293     14.28258149
328  1   33.23578500     5.0496551293     14.28258149
329  1   10.49551105     8.0794481828     14.28258149
330  1   13.99401474     8.0794481828     14.28258149
331  1   17.49251842     8.0794481828     14.28258149
332  1   20.99102210     8.0794481828     14.28258149
333  1   24.48952579     8.0794481828     14.28258149
334  1   27.98802947     8.0794481828     14.28258149
335  1   31.48653317     8.0794481828     14.28258149
336  1   34.98503685     8.0794481828     14.28258149
337  1   12.24476290     11.1092412564     14.28258149
338  1   15.74326658     11.1092412564     14.28258149
339  1   19.24177027     11.1092412564     14.28258149
340  1   22.74027395     11.1092412564     14.28258149
341  1   26.23877763     11.1092412564     14.28258149
342  1   29.73728132     11.1092412564     14.28258149
343  1   33.23578500     11.1092412564     14.28258149
344  1   36.73428869     11.1092412564     14.28258149
345  1   13.99401474     14.1390343199     14.28258149
346  1   17.49251842     14.1390343199     14.28258149
347  1   20.99102210     14.1390343199     14.28258149
348  1   24.48952579     14.1390343199     14.28258149
349  1   27.98802947     14.1390343199     14.28258149
350  1   31.48653317     14.1390343199     14.28258149
351  1   34.98503685     14.1390343199     14.28258149
352  1   38.48354052     14.1390343199     14.28258149
353  1   15.74326658     17.1688273835     14.28258149
354  1   19.24177027     17.1688273835     14.28258149
355  1   22.74027395     17.1688273835     14.28258149
356  1   26.23877763     17.1688273835     14.28258149
357  1   29.73728132     17.1688273835     14.28258149
358  1   33.23578500     17.1688273835     14.28258149
359  1   36.73428869     17.1688273835     14.28258149
360  1   40.23279237     17.1688273835     14.28258149
361  1   17.49251842     20.1986204470     14.28258149
362  1   20.99102210     20.1986204470     14.28258149
363  1   24.48952579     20.1986204470     14.28258149
364  1   27.98802947     20.1986204470     14.28258149
365  1   31.48653317     20.1986204470     14.28258149
366  1   34.98503685     20.1986204470     14.28258149
367  1   38.48354052     20.1986204470     14.28258149
368  1   41.98204422     20.1986204470     14.28258149
369  1   19.24177027     23.2284135106     14.28258149
370  1   22.74027395     23.2284135106     14.28258149
371  1   26.23877763     23.2284135106     14.28258149
372  1   29.73728132     23.2284135106     14.28258149
373  1   33.23578500     23.2284135106     14.28258149
374  1   36.73428869     23.2284135106     14.28258149
375  1   40.23279237     23.2284135106     14.28258149
376  1   43.73129605     23.2284135106     14.28258149
377  1   20.99102210     26.2582065741     14.28258149
378  1   24.48952579     26.2582065741     14.28258149
379  1   27.98802947     26.2582065741     14.28258149
380  1   31.48653317     26.2582065741     14.28258149
381  1   34.98503685     26.2582065741     14.28258149
382  1   38.48354052     26.2582065741     14.28258149
383  1   41.98204422     26.2582065741     14.28258149
384  1   45.48054790     26.2582065741     14.28258149
385  1   10.49551105     6.0595861371     17.13909778
386  1   13.99401474     6.0595861371     17.13909778
387  1   17.49251842     6.0595861371     17.13909778
388  1   20.99102210     6.0595861371     17.13909778
389  1   24.48952579     6.0595861371     17.13909778
390  1   27.98802947     6.0595861371     17.13909778
391  1   31.48653317     6.0595861371     17.13909778
392  1   34.98503685     6.0595861371     17.13909778
393  1   12.24476290     9.0893792007     17.13909778
394  1   15.74326658     9.0893792007     17.13909778
395  1   19.24177027     9.0893792007     17.13909778
396  1   22.74027395     9.0893792007     17.13909778
397  1   26.23877763     9.0893792007     17.13909778
398  1   29.73728132     9.0893792007     17.13909778
399  1   33.23578500     9.0893792007     17.13909778
400  1   36.73428869     9.0893792007     17.13909778
401  1   13.99401474     12.1191722642     17.13909778
402  1   17.49251842     12.1191722642     17.13909778
403  1   20.99102210     12.1191722642     17.13909778
404  1   24.48952579     12.1191722642     17.13909778
405  1   27.98802947     12.1191722642     17.13909778
406  1   31.48653317     12.1191722642     17.13909778
407  1   34.98503685     12.1191722642     17.13909778
408  1   38.48354052     12.1191722642     17.13909778
409  1   15.74326658     15.1489653478     17.13909778
410  1   19.24177027     15.1489653478     17.13909778
411  1   22.74027395     15.1489653478     17.13909778
412  1   26.23877763     15.1489653478     17.13909778
413  1   29.73728132     15.1489653478     17.13909778
414  1   33.23578500     15.1489653478     17.13909778
415  1   36.73428869     15.1489653478     17.13909778
416  1   40.23279237     15.1489653478     17.13909778
417  1   17.49251842     18.1787584013     17.13909778
418  1   20.99102210     18.1787584013     17.13909778
419  1   24.48952579     18.1787584013     17.13909778
420  1   27.98802947     18.1787584013     17.13909778
421  1   31.48653317     18.1787584013     17.13909778
422  1   34.98503685     18.1787584013     17.13909778
423  1   38.48354052     18.1787584013     17.13909778
424  1   41.98204422     18.1787584013     17.13909778
425  1   19.24177027     21.2085514749     17.13909778
426  1   22.74027395     21.2085514749     17.13909778
427  1   26.23877763     21.2085514749     17.13909778
428  1   29.73728132     21.2085514749     17.13909778
429  1   33.23578500     21.2085514749     17.13909778
430  1   36.73428869     21.2085514749     17.13909778
431  1   40.23279237     21.2085514749     17.13909778
432  1   43.73129605     21.2085514749     17.13909778
433  1   20.99102210     24.2383445384     17.13909778
434  1   24.48952579     24.2383445384     17.13909778
435  1   27.98802947     24.2383445384     17.13909778
436  1   31.48653317     24.2383445384     17.13909778
437  1   34.98503685     24.2383445384     17.13909778
438  1   38.48354052     24.2383445384     17.13909778
439  1   41.98204422     24.2383445384     17.13909778
440  1   45.48054790     24.2383445384     17.13909778
441  1   22.74027395     27.2681376020     17.13909778
442  1   26.23877763     27.2681376020     17.13909778
443  1   29.73728132     27.2681376020     17.13909778
444  1   33.23578500     27.2681376020     17.13909778
445  1   36.73428869     27.2681376020     17.13909778
446  1   40.23279237     27.2681376020     17.13909778
447  1   43.73129605     27.2681376020     17.13909778
448  1   47.22979974     27.2681376020     17.13909778
449  1   12.24476290     7.0695171650     19.99561408
450  1   15.74326658     7.0695171650     19.99561408
451  1   19.24177027     7.0695171650     19.99561408
452  1   22.74027395     7.0695171650     19.99561408
453  1   26.23877763     7.0695171650     19.99561408
454  1   29.73728132     7.0695171650     19.99561408
455  1   33.23578500     7.0695171650     19.99561408
456  1   36.73428869     7.0695171650     19.99561408
457  1   13.99401474     10.0993102285     19.99561408
458  1   17.49251842     10.0993102285     19.99561408
459  1   20.99102210     10.0993102285     19.99561408
460  1   24.48952579     10.0993102285     19.99561408
461  1   27.98802947     10.0993102285     19.99561408
462  1   31.48653317     10.0993102285     19.99561408
463  1   34.98503685     10.0993102285     19.99561408
464  1   38.48354052     10.0993102285     19.99561408
465  1   15.74326658     13.1291032921     19.99561408
466  1   19.24177027     13.1291032921     19.99561408
467  1   22.74027395     13.1291032921     19.99561408
468  1   26.23877763     13.1291032921     19.99561408
469  1   29.73728132     13.1291032921     19.99561408
470  1   33.23578500     13.1291032921     19.99561408
471  1   36.73428869     13.1291032921     19.99561408
472  1   40.23279237     13.1291032921     19.99561408
473  1   17.49251842     16.1588963556     19.99561408
474  1   20.99102210     16.1588963556     19.99561408
475  1   24.48952579     16.1588963556     19.99561408
476  1   27.98802947     16.1588963556     19.99561408
477  1   31.48653317     16.1588963556     19.99561408
478  1   34.98503685     16.1588963556     19.99561408
479  1   38.48354052     16.1588963556     19.99561408
480  1   41.98204422     16.1588963556     19.99561408
481  1   19.24177027     19.1886894292     19.99561408
482  1   22.74027395     19.1886894292     19.99561408
483  1   26.23877763     19.1886894292     19.99561408
484  1   29.73728132     19.1886894292     19.99561408
485  1   33.23578500     19.1886894292     19.99561408
486  1   36.73428869     19.1886894292     19.99561408
487  1   40.23279237     19.1886894292     19.99561408
488  1   43.73129605     19.1886894292     19.99561408
489  1   20.99102210     22.2184824827     19.99561408
490  1   24.48952579     22.2184824827     19.99561408
491  1   27.98802947     22.2184824827     19.99561408
492  1   31.48653317     22.2184824827     19.99561408
493  1   34.98503685     22.2184824827     19.99561408
494  1   38.48354052     22.2184824827     19.99561408
495  1   41.98204422     22.2184824827     19.99561408
496  1   45.48054790     22.2184824827     19.99561408
497  1   22.74027395     25.2482755663     19.99561408
498  1   26.23877763     25.2482755663     19.99561408
499  1   29.73728132     25.2482755663     19.99561408
500  1   33.23578500     25.2482755663     19.99561408
501  1   36.73428869     25.2482755663     19.99561408
502  1   40.23279237     25.2482755663     19.99561408
503  1   43.73129605     25.2482755663     19.99561408
504  1   47.22979974     25.2482755663     19.99561408
505  1   24.48952579     28.2780686298     19.99561408
506  1   27.98802947     28.2780686298     19.99561408
507  1   31.48653317     28.2780686298     19.99561408
508  1   34.98503685     28.2780686298     19.99561408
509  1   38.48354052     28.2780686298     19.99561408
510  1   41.98204422     28.2780686298     19.99561408
511  1   45.48054790     28.2780686298     19.99561408
512  1   48.97905159     28.2780686298     19.99561408
