ITEM: TIMESTEP
0
ITEM: NUMBER OF ATOMS
512
ITEM: BOX BOUNDS xy xz yz pp pp pp
0.0000000000000000e+00 5.5976058930000008e+01 1.3994014730000000e+01
0.0000000000000000e+00 3.2317792689999997e+01 1.3994014730000000e+01
0.0000000000000000e+00 2.2852130360000000e+01 8.0794481699999992e+00
ITEM: ATOMS id type xs ys zs
1 1 0 0 0
2 1 0.125 0 0
3 1 0.25 0 0
4 1 0.375 0 0
5 1 0.5 0 0
6 1 0.625 0 0
7 1 0.75 0 0
8 1 0.875 0 0
9 1 1.35229e-10 0.125 0
10 1 0.125 0.125 0
11 1 0.25 0.125 0
12 1 0.375 0.125 0
13 1 0.5 0.125 0
14 1 0.625 0.125 0
15 1 0.75 0.125 0
16 1 0.875 0.125 0
17 1 1 0.25 0
18 1 0.125 0.25 0
19 1 0.25 0.25 0
20 1 0.375 0.25 0
21 1 0.5 0.25 0
22 1 0.625 0.25 0
23 1 0.75 0.25 0
24 1 0.875 0.25 0
25 1 1.05727e-10 0.375 0
26 1 0.125 0.375 0
27 1 0.25 0.375 0
28 1 0.375 0.375 0
29 1 0.5 0.375 0
30 1 0.625 0.375 0
31 1 0.75 0.375 0
32 1 0.875 0.375 0
33 1 9.20082e-11 0.5 0
34 1 0.125 0.5 0
35 1 0.25 0.5 0
36 1 0.375 0.5 0
37 1 0.5 0.5 0
38 1 0.625 0.5 0
39 1 0.75 0.5 0
40 1 0.875 0.5 0
41 1 1 0.625 0
42 1 0.125 0.625 0
43 1 0.25 0.625 0
44 1 0.375 0.625 0
45 1 0.5 0.625 0
46 1 0.625 0.625 0
47 1 0.75 0.625 0
48 1 0.875 0.625 0
49 1 1 0.75 0
50 1 0.125 0.75 0
51 1 0.25 0.75 0
52 1 0.375 0.75 0
53 1 0.5 0.75 0
54 1 0.625 0.75 0
55 1 0.75 0.75 0
56 1 0.875 0.75 0
57 1 1 0.875 0
58 1 0.125 0.875 0
59 1 0.25 0.875 0
60 1 0.375 0.875 0
61 1 0.5 0.875 0
62 1 0.625 0.875 0
63 1 0.75 0.875 0
64 1 0.875 0.875 0
65 1 4.21023e-11 7.59861e-10 0.125
66 1 0.125 7.59861e-10 0.125
67 1 0.25 7.59861e-10 0.125
68 1 0.375 7.59861e-10 0.125
69 1 0.5 7.59861e-10 0.125
70 1 0.625 7.59861e-10 0.125
71 1 0.75 7.59861e-10 0.125
72 1 0.875 7.59861e-10 0.125
73 1 1 0.125 0.125
74 1 0.125 0.125 0.125
75 1 0.25 0.125 0.125
76 1 0.375 0.125 0.125
77 1 0.5 0.125 0.125
78 1 0.625 0.125 0.125
79 1 0.75 0.125 0.125
80 1 0.875 0.125 0.125
81 1 1.2601e-11 0.25 0.125
82 1 0.125 0.25 0.125
83 1 0.25 0.25 0.125
84 1 0.375 0.25 0.125
85 1 0.5 0.25 0.125
86 1 0.625 0.25 0.125
87 1 0.75 0.25 0.125
88 1 0.875 0.25 0.125
89 1 1 0.375 0.125
90 1 0.125 0.375 0.125
91 1 0.25 0.375 0.125
92 1 0.375 0.375 0.125
93 1 0.5 0.375 0.125
94 1 0.625 0.375 0.125
95 1 0.75 0.375 0.125
96 1 0.875 0.375 0.125
97 1 1 0.5 0.125
98 1 0.125 0.5 0.125
99 1 0.25 0.5 0.125
100 1 0.375 0.5 0.125
101 1 0.5 0.5 0.125
102 1 0.625 0.5 0.125
103 1 0.75 0.5 0.125
104 1 0.875 0.5 0.125
105 1 1 0.625 0.125
106 1 0.125 0.625 0.125
107 1 0.25 0.625 0.125
108 1 0.375 0.625 0.125
109 1 0.5 0.625 0.125
110 1 0.625 0.625 0.125
111 1 0.75 0.625 0.125
112 1 0.875 0.625 0.125
113 1 1.04609e-10 0.75 0.125
114 1 0.125 0.75 0.125
115 1 0.25 0.75 0.125
116 1 0.375 0.75 0.125
117 1 0.5 0.75 0.125
118 1 0.625 0.75 0.125
119 1 0.75 0.75 0.125
120 1 0.875 0.75 0.125
121 1 2.97175e-10 0.875 0.125
122 1 0.125 0.875 0.125
123 1 0.25 0.875 0.125
124 1 0.375 0.875 0.125
125 1 0.5 0.875 0.125
126 1 0.625 0.875 0.125
127 1 0.75 0.875 0.125
128 1 0.875 0.875 0.125
129 1 1 1 0.25
130 1 0.125 1 0.25
131 1 0.25 1 0.25
132 1 0.375 1 0.25
133 1 0.5 1 0.25
134 1 0.625 1 0.25
135 1 0.75 1 0.25
136 1 0.875 1 0.25
137 1 1 0.125 0.25
138 1 0.125 0.125 0.25
139 1 0.25 0.125 0.25
140 1 0.375 0.125 0.25
141 1 0.5 0.125 0.25
142 1 0.625 0.125 0.25
143 1 0.75 0.125 0.25
144 1 0.875 0.125 0.25
145 1 1 0.25 0.25
146 1 0.125 0.25 0.25
147 1 0.25 0.25 0.25
148 1 0.375 0.25 0.25
149 1 0.5 0.25 0.25
150 1 0.625 0.25 0.25
151 1 0.75 0.25 0.25
152 1 0.875 0.25 0.25
153 1 1 0.375 0.25
154 1 0.125 0.375 0.25
155 1 0.25 0.375 0.25
156 1 0.375 0.375 0.25
157 1 0.5 0.375 0.25
158 1 0.625 0.375 0.25
159 1 0.75 0.375 0.25
160 1 0.875 0.375 0.25
161 1 1 0.5 0.25
162 1 0.125 0.5 0.25
163 1 0.25 0.5 0.25
164 1 0.375 0.5 0.25
165 1 0.5 0.5 0.25
166 1 0.625 0.5 0.25
167 1 0.75 0.5 0.25
168 1 0.875 0.5 0.25
169 1 1 0.625 0.25
170 1 0.125 0.625 0.25
171 1 0.25 0.625 0.25
172 1 0.375 0.625 0.25
173 1 0.5 0.625 0.25
174 1 0.625 0.625 0.25
175 1 0.75 0.625 0.25
176 1 0.875 0.625 0.25
177 1 1 0.75 0.25
178 1 0.125 0.75 0.25
179 1 0.25 0.75 0.25
180 1 0.375 0.75 0.25
181 1 0.5 0.75 0.25
182 1 0.625 0.75 0.25
183 1 0.75 0.75 0.25
184 1 0.875 0.75 0.25
185 1 1 0.875 0.25
186 1 0.125 0.875 0.25
187 1 0.25 0.875 0.25
188 1 0.375 0.875 0.25
189 1 0.5 0.875 0.25
190 1 0.625 0.875 0.25
191 1 0.75 0.875 0.25
192 1 0.875 0.875 0.25
193 1 1 3.33448e-10 0.375
194 1 0.125 3.33448e-10 0.375
195 1 0.25 3.33448e-10 0.375
196 1 0.375 3.33448e-10 0.375
197 1 0.5 3.33448e-10 0.375
198 1 0.625 3.33448e-10 0.375
199 1 0.75 3.33448e-10 0.375
200 1 0.875 3.33448e-10 0.375
201 1 1 0.125 0.375
202 1 0.125 0.125 0.375
203 1 0.25 0.125 0.375
204 1 0.375 0.125 0.375
205 1 0.5 0.125 0.375
206 1 0.625 0.125 0.375
207 1 0.75 0.125 0.375
208 1 0.875 0.125 0.375
209 1 1 0.25 0.375
210 1 0.125 0.25 0.375
211 1 0.25 0.25 0.375
212 1 0.375 0.25 0.375
213 1 0.5 0.25 0.375
214 1 0.625 0.25 0.375
215 1 0.75 0.25 0.375
216 1 0.875 0.25 0.375
217 1 1 0.375 0.375
218 1 0.125 0.375 0.375
219 1 0.25 0.375 0.375
220 1 0.375 0.375 0.375
221 1 0.5 0.375 0.375
222 1 0.625 0.375 0.375
223 1 0.75 0.375 0.375
224 1 0.875 0.375 0.375
225 1 1 0.5 0.375
226 1 0.125 0.5 0.375
227 1 0.25 0.5 0.375
228 1 0.375 0.5 0.375
229 1 0.5 0.5 0.375
230 1 0.625 0.5 0.375
231 1 0.75 0.5 0.375
232 1 0.875 0.5 0.375
233 1 2.54753e-11 0.625 0.375
234 1 0.125 0.625 0.375
235 1 0.25 0.625 0.375
236 1 0.375 0.625 0.375
237 1 0.5 0.625 0.375
238 1 0.625 0.625 0.375
239 1 0.75 0.625 0.375
240 1 0.875 0.625 0.375
241 1 1 0.75 0.375
242 1 0.125 0.75 0.375
243 1 0.25 0.75 0.375
244 1 0.375 0.75 0.375
245 1 0.5 0.75 0.375
246 1 0.625 0.75 0.375
247 1 0.75 0.75 0.375
248 1 0.875 0.75 0.375
249 1 1 0.875 0.375
250 1 0.125 0.875 0.375
251 1 0.25 0.875 0.375
252 1 0.375 0.875 0.375
253 1 0.5 0.875 0.375
254 1 0.625 0.875 0.375
255 1 0.75 0.875 0.375
256 1 0.875 0.875 0.375
257 1 4.66256e-11 2.64044e-10 0.5
258 1 0.125 2.64044e-10 0.5
259 1 0.25 2.64044e-10 0.5
260 1 0.375 2.64044e-10 0.5
261 1 0.5 2.64044e-10 0.5
262 1 0.625 2.64044e-10 0.5
263 1 0.75 2.64044e-10 0.5
264 1 0.875 2.64044e-10 0.5
265 1 1 0.125 0.5
266 1 0.125 0.125 0.5
267 1 0.25 0.125 0.5
268 1 0.375 0.125 0.5
269 1 0.5 0.125 0.5
270 1 0.625 0.125 0.5
271 1 0.75 0.125 0.5
272 1 0.875 0.125 0.5
273 1 1 0.25 0.5
274 1 0.125 0.25 0.5
275 1 0.25 0.25 0.5
276 1 0.375 0.25 0.5
277 1 0.5 0.25 0.5
278 1 0.625 0.25 0.5
279 1 0.75 0.25 0.5
280 1 0.875 0.25 0.5
281 1 1.52353e-10 0.375 0.5
282 1 0.125 0.375 0.5
283 1 0.25 0.375 0.5
284 1 0.375 0.375 0.5
285 1 0.5 0.375 0.5
286 1 0.625 0.375 0.5
287 1 0.75 0.375 0.5
288 1 0.875 0.375 0.5
289 1 1.38634e-10 0.5 0.5
290 1 0.125 0.5 0.5
291 1 0.25 0.5 0.5
292 1 0.375 0.5 0.5
293 1 0.5 0.5 0.5
294 1 0.625 0.5 0.5
295 1 0.75 0.5 0.5
296 1 0.875 0.5 0.5
297 1 1 0.625 0.5
298 1 0.125 0.625 0.5
299 1 0.25 0.625 0.5
300 1 0.375 0.625 0.5
301 1 0.5 0.625 0.5
302 1 0.625 0.625 0.5
303 1 0.75 0.625 0.5
304 1 0.875 0.625 0.5
305 1 1.09132e-10 0.75 0.5
306 1 0.125 0.75 0.5
307 1 0.25 0.75 0.5
308 1 0.375 0.75 0.5
309 1 0.5 0.75 0.5
310 1 0.625 0.75 0.5
311 1 0.75 0.75 0.5
312 1 0.875 0.75 0.5
313 1 3.80764e-11 0.875 0.5
314 1 0.125 0.875 0.5
315 1 0.25 0.875 0.5
316 1 0.375 0.875 0.5
317 1 0.5 0.875 0.5
318 1 0.625 0.875 0.5
319 1 0.75 0.875 0.5
320 1 0.875 0.875 0.5
321 1 1 7.32175e-10 0.625
322 1 0.125 7.32175e-10 0.625
323 1 0.25 7.32175e-10 0.625
324 1 0.375 7.32175e-10 0.625
325 1 0.5 7.32175e-10 0.625
326 1 0.625 7.32175e-10 0.625
327 1 0.75 7.32175e-10 0.625
328 1 0.875 7.32175e-10 0.625
329 1 1 0.125 0.625
330 1 0.125 0.125 0.625
331 1 0.25 0.125 0.625
332 1 0.375 0.125 0.625
333 1 0.5 0.125 0.625
334 1 0.625 0.125 0.625
335 1 0.75 0.125 0.625
336 1 0.875 0.125 0.625
337 1 1 0.25 0.625
338 1 0.125 0.25 0.625
339 1 0.25 0.25 0.625
340 1 0.375 0.25 0.625
341 1 0.5 0.25 0.625
342 1 0.625 0.25 0.625
343 1 0.75 0.25 0.625
344 1 0.875 0.25 0.625
345 1 1 0.375 0.625
346 1 0.125 0.375 0.625
347 1 0.25 0.375 0.625
348 1 0.375 0.375 0.625
349 1 0.5 0.375 0.625
350 1 0.625 0.375 0.625
351 1 0.75 0.375 0.625
352 1 0.875 0.375 0.625
353 1 1 0.5 0.625
354 1 0.125 0.5 0.625
355 1 0.25 0.5 0.625
356 1 0.375 0.5 0.625
357 1 0.5 0.5 0.625
358 1 0.625 0.5 0.625
359 1 0.75 0.5 0.625
360 1 0.875 0.5 0.625
361 1 1 0.625 0.625
362 1 0.125 0.625 0.625
363 1 0.25 0.625 0.625
364 1 0.375 0.625 0.625
365 1 0.5 0.625 0.625
366 1 0.625 0.625 0.625
367 1 0.75 0.625 0.625
368 1 0.875 0.625 0.625
369 1 6.57887e-11 0.75 0.625
370 1 0.125 0.75 0.625
371 1 0.25 0.75 0.625
372 1 0.375 0.75 0.625
373 1 0.5 0.75 0.625
374 1 0.625 0.75 0.625
375 1 0.75 0.75 0.625
376 1 0.875 0.75 0.625
377 1 1 0.875 0.625
378 1 0.125 0.875 0.625
379 1 0.25 0.875 0.625
380 1 0.375 0.875 0.625
381 1 0.5 0.875 0.625
382 1 0.625 0.875 0.625
383 1 0.75 0.875 0.625
384 1 0.875 0.875 0.625
385 1 1 2.50201e-10 0.75
386 1 0.125 2.50201e-10 0.75
387 1 0.25 2.50201e-10 0.75
388 1 0.375 2.50201e-10 0.75
389 1 0.5 2.50201e-10 0.75
390 1 0.625 2.50201e-10 0.75
391 1 0.75 2.50201e-10 0.75
392 1 0.875 2.50201e-10 0.75
393 1 8.69387e-11 0.125 0.75
394 1 0.125 0.125 0.75
395 1 0.25 0.125 0.75
396 1 0.375 0.125 0.75
397 1 0.5 0.125 0.75
398 1 0.625 0.125 0.75
399 1 0.75 0.125 0.75
400 1 0.875 0.125 0.75
401 1 7.32195e-11 0.25 0.75
402 1 0.125 0.25 0.75
403 1 0.25 0.25 0.75
404 1 0.375 0.25 0.75
405 1 0.5 0.25 0.75
406 1 0.625 0.25 0.75
407 1 0.75 0.25 0.75
408 1 0.875 0.25 0.75
409 1 1 0.375 0.75
410 1 0.125 0.375 0.75
411 1 0.25 0.375 0.75
412 1 0.375 0.375 0.75
413 1 0.5 0.375 0.75
414 1 0.625 0.375 0.75
415 1 0.75 0.375 0.75
416 1 0.875 0.375 0.75
417 1 1 0.5 0.75
418 1 0.125 0.5 0.75
419 1 0.25 0.5 0.75
420 1 0.375 0.5 0.75
421 1 0.5 0.5 0.75
422 1 0.625 0.5 0.75
423 1 0.75 0.5 0.75
424 1 0.875 0.5 0.75
425 1 1 0.625 0.75
426 1 0.125 0.625 0.75
427 1 0.25 0.625 0.75
428 1 0.375 0.625 0.75
429 1 0.5 0.625 0.75
430 1 0.625 0.625 0.75
431 1 0.75 0.625 0.75
432 1 0.875 0.625 0.75
433 1 1 0.75 0.75
434 1 0.125 0.75 0.75
435 1 0.25 0.75 0.75
436 1 0.375 0.75 0.75
437 1 0.5 0.75 0.75
438 1 0.625 0.75 0.75
439 1 0.75 0.75 0.75
440 1 0.875 0.75 0.75
441 1 1 0.875 0.75
442 1 0.125 0.875 0.75
443 1 0.25 0.875 0.75
444 1 0.375 0.875 0.75
445 1 0.5 0.875 0.75
446 1 0.625 0.875 0.75
447 1 0.75 0.875 0.75
448 1 0.875 0.875 0.75
449 1 1 4.51627e-10 0.875
450 1 0.125 4.51627e-10 0.875
451 1 0.25 4.51627e-10 0.875
452 1 0.375 4.51627e-10 0.875
453 1 0.5 4.51627e-10 0.875
454 1 0.625 4.51627e-10 0.875
455 1 0.75 4.51627e-10 0.875
456 1 0.875 4.51627e-10 0.875
457 1 1 0.125 0.875
458 1 0.125 0.125 0.875
459 1 0.25 0.125 0.875
460 1 0.375 0.125 0.875
461 1 0.5 0.125 0.875
462 1 0.625 0.125 0.875
463 1 0.75 0.125 0.875
464 1 0.875 0.125 0.875
465 1 1 0.25 0.875
466 1 0.125 0.25 0.875
467 1 0.25 0.25 0.875
468 1 0.375 0.25 0.875
469 1 0.5 0.25 0.875
470 1 0.625 0.25 0.875
471 1 0.75 0.25 0.875
472 1 0.875 0.25 0.875
473 1 1 0.375 0.875
474 1 0.125 0.375 0.875
475 1 0.25 0.375 0.875
476 1 0.375 0.375 0.875
477 1 0.5 0.375 0.875
478 1 0.625 0.375 0.875
479 1 0.75 0.375 0.875
480 1 0.875 0.375 0.875
481 1 1 0.5 0.875
482 1 0.125 0.5 0.875
483 1 0.25 0.5 0.875
484 1 0.375 0.5 0.875
485 1 0.5 0.5 0.875
486 1 0.625 0.5 0.875
487 1 0.75 0.5 0.875
488 1 0.875 0.5 0.875
489 1 1 0.625 0.875
490 1 0.125 0.625 0.875
491 1 0.25 0.625 0.875
492 1 0.375 0.625 0.875
493 1 0.5 0.625 0.875
494 1 0.625 0.625 0.875
495 1 0.75 0.625 0.875
496 1 0.875 0.625 0.875
497 1 1 0.75 0.875
498 1 0.125 0.75 0.875
499 1 0.25 0.75 0.875
500 1 0.375 0.75 0.875
501 1 0.5 0.75 0.875
502 1 0.625 0.75 0.875
503 1 0.75 0.75 0.875
504 1 0.875 0.75 0.875
505 1 1 0.875 0.875
506 1 0.125 0.875 0.875
507 1 0.25 0.875 0.875
508 1 0.375 0.875 0.875
509 1 0.5 0.875 0.875
510 1 0.625 0.875 0.875
511 1 0.75 0.875 0.875
512 1 0.875 0.875 0.875
ITEM: TIMESTEP
50000
ITEM: NUMBER OF ATOMS
512
ITEM: BOX BOUNDS xy xz yz pp pp pp
-1.5776596987738500e-01 5.6449356839519680e+01 1.4151780699820900e+01
-1.3662933774986818e-01 3.2545508252878641e+01 1.4151780699820900e+01
-1.2881537493960415e-01 2.2980945734939425e+01 8.1705343951290850e+00
ITEM: ATOMS id type xs ys zs
1 1 -0.00866102 0.996762 1.00305
2 1 0.123109 0.999195 -0.0063858
3 1 0.263816 0.993362 0.989769
4 1 0.387212 -0.0014665 0.000395988
5 1 0.50995 0.992332 -0.0042203
6 1 0.626608 -0.0100625 0.00744935
7 1 0.749975 1.00429 0.991525
8 1 0.866684 0.00146924 0.99524
9 1 0.00348333 0.122922 0.993493
10 1 0.139115 0.117863 0.988223
11 1 0.259628 0.126118 0.994064
12 1 0.392601 0.124982 0.984985
13 1 0.503322 0.117167 -0.000124781
14 1 0.625951 0.128865 1.00114
15 1 0.745625 0.129436 0.0103984
16 1 0.88156 0.113312 0.00390154
17 1 0.00712185 0.246642 1.00175
18 1 0.134907 0.234284 0.00995804
19 1 0.246029 0.241567 0.000997891
20 1 0.369851 0.239832 0.0068237
21 1 0.48218 0.242535 0.0194681
22 1 0.616327 0.259467 -0.00227244
23 1 0.749051 0.246837 1.00469
24 1 0.885508 0.250523 0.995554
25 1 0.0170227 0.368828 0.9946
26 1 0.127876 0.374253 1.00575
27 1 0.25053 0.37215 0.999141
28 1 0.370063 0.376204 -0.0038067
29 1 0.497921 0.377003 -0.00204694
30 1 0.638442 0.361153 0.998968
31 1 0.766101 0.364149 0.998679
32 1 0.882873 0.377724 -0.00162166
33 1 0.0107016 0.485708 1.01055
34 1 0.12751 0.508145 0.00508146
35 1 0.251284 0.498656 0.0153895
36 1 0.376577 0.500073 0.994437
37 1 0.511994 0.491703 0.00516222
38 1 0.642744 0.485328 0.992344
39 1 0.753487 0.500152 0.998714
40 1 0.894706 0.488387 0.994813
41 1 0.99689 0.612728 0.996033
42 1 0.122377 0.630382 0.996878
43 1 0.242462 0.621219 0.0109218
44 1 0.382388 0.617767 1.00626
45 1 0.507049 0.613991 0.998127
46 1 0.618146 0.618133 0.997718
47 1 0.741055 0.623373 1.00507
48 1 0.869604 0.61038 0.998986
49 1 -0.00332235 0.748108 0.00546858
50 1 0.12425 0.73489 1.01029
51 1 0.250019 0.735809 0.00553251
52 1 0.372359 0.749044 0.998073
53 1 0.494471 0.747035 -0.00131513
54 1 0.623115 0.735341 0.00113661
55 1 0.749725 0.737375 0.0105079
56 1 0.878349 0.74708 0.989787
57 1 0.993223 0.87062 0.00469352
58 1 0.114839 0.875106 0.997788
59 1 0.25711 0.870391 0.990108
60 1 0.383968 0.870552 0.985631
61 1 0.506009 0.872613 -0.00533122
62 1 0.639101 0.8569 3.15353e-05
63 1 0.757304 0.870017 0.993424
64 1 0.88132 0.857761 0.00372889
65 1 -8.11334e-05 1.001 0.114273
66 1 0.134153 -0.00384196 0.118484
67 1 0.251036 -0.0074686 0.120203
68 1 0.384619 0.998597 0.119899
69 1 0.500623 0.990919 0.124186
70 1 0.623471 0.013206 0.114206
71 1 0.755414 0.0051802 0.109996
72 1 0.866594 1.00227 0.129995
73 1 0.00200865 0.122956 0.119158
74 1 0.122363 0.118953 0.131123
75 1 0.261837 0.116866 0.124201
76 1 0.379261 0.111916 0.139967
77 1 0.494204 0.121405 0.143848
78 1 0.615807 0.115276 0.138102
79 1 0.752316 0.123124 0.127511
80 1 0.871343 0.118812 0.129551
81 1 -0.00291444 0.256166 0.121044
82 1 0.133225 0.253911 0.118609
83 1 0.250698 0.254025 0.11797
84 1 0.360306 0.241286 0.149836
85 1 0.493246 0.249849 0.130246
86 1 0.623818 0.252474 0.114319
87 1 0.758232 0.249998 0.122
88 1 0.881656 0.234179 0.138932
89 1 1.0004 0.369079 0.129798
90 1 0.122211 0.377975 0.121838
91 1 0.249276 0.372468 0.131687
92 1 0.365074 0.377385 0.127152
93 1 0.508868 0.371291 0.12534
94 1 0.632027 0.381049 0.113686
95 1 0.751744 0.377005 0.117879
96 1 0.870851 0.379156 0.130426
97 1 0.00163731 0.487669 0.131488
98 1 0.11995 0.502015 0.14162
99 1 0.243264 0.500001 0.13565
100 1 0.367275 0.498768 0.126051
101 1 0.508353 0.502586 0.122906
102 1 0.625421 0.500532 0.126932
103 1 0.753526 0.498549 0.127617
104 1 0.87566 0.494663 0.128884
105 1 0.999773 0.617206 0.120158
106 1 0.113463 0.625857 0.142519
107 1 0.251602 0.623148 0.128764
108 1 0.375769 0.624626 0.121155
109 1 0.502607 0.631325 0.118614
110 1 0.621157 0.620977 0.128202
111 1 0.749834 0.621919 0.133418
112 1 0.878656 0.620735 0.116843
113 1 0.985606 0.755321 0.127382
114 1 0.11901 0.756548 0.117915
115 1 0.257315 0.748007 0.127739
116 1 0.376594 0.748287 0.120759
117 1 0.492593 0.752652 0.132714
118 1 0.625209 0.737007 0.126281
119 1 0.755997 0.746088 0.127004
120 1 0.872903 0.742429 0.127964
121 1 1.00646 0.882197 0.120549
122 1 0.133075 0.881198 0.11357
123 1 0.253492 0.876563 0.114046
124 1 0.368665 0.878082 0.126709
125 1 0.497366 0.869968 0.130888
126 1 0.627467 0.867619 0.131195
127 1 0.748829 0.870039 0.12125
128 1 0.865773 0.877605 0.129254
129 1 0.0105703 0.00562632 0.242342
130 1 0.129405 -0.00140423 0.259877
131 1 0.250066 1.00871 0.238497
132 1 0.366926 -0.00930792 0.264233
133 1 0.497526 0.998899 0.253641
134 1 0.619697 0.00104484 0.258026
135 1 0.748504 0.00985706 0.251888
136 1 0.87294 0.00693309 0.252167
137 1 0.999292 0.130889 0.241869
138 1 0.123453 0.130539 0.24162
139 1 0.237144 0.12984 0.254142
140 1 0.372322 0.120157 0.256844
141 1 0.494796 0.120418 0.263016
142 1 0.619764 0.14099 0.23664
143 1 0.752043 0.135892 0.248719
144 1 0.880715 0.121338 0.252233
145 1 0.99115 0.259126 0.263741
146 1 0.117024 0.253912 0.24997
147 1 0.249896 0.242215 0.265367
148 1 0.37414 0.250836 0.256004
149 1 0.493731 0.248121 0.256034
150 1 0.626333 0.250041 0.247858
151 1 0.754796 0.247409 0.246529
152 1 0.875509 0.249609 0.251861
153 1 1.00379 0.3819 0.248269
154 1 0.124586 0.377369 0.247654
155 1 0.251548 0.374486 0.252553
156 1 0.378934 0.379307 0.249296
157 1 0.501407 0.369121 0.258017
158 1 0.638997 0.366996 0.243576
159 1 0.755496 0.380026 0.243458
160 1 0.8697 0.374467 0.254505
161 1 1.0003 0.499918 0.261872
162 1 0.123599 0.511574 0.252709
163 1 0.25312 0.488976 0.255075
164 1 0.390275 0.482519 0.25134
165 1 0.496241 0.504748 0.25042
166 1 0.61868 0.489176 0.252886
167 1 0.746068 0.498029 0.254815
168 1 0.871531 0.494224 0.252986
169 1 0.991073 0.633522 0.247753
170 1 0.143542 0.634062 0.237038
171 1 0.277267 0.61174 0.235868
172 1 0.377767 0.634728 0.245512
173 1 0.502126 0.623562 0.251962
174 1 0.623148 0.6148 0.253329
175 1 0.738272 0.619445 0.266573
176 1 0.876217 0.617478 0.23739
177 1 1.00111 0.772541 0.232637
178 1 0.119436 0.769535 0.232566
179 1 0.248712 0.748985 0.247759
180 1 0.37912 0.757995 0.252429
181 1 0.502255 0.741472 0.257738
182 1 0.626933 0.749024 0.253091
183 1 0.74764 0.754528 0.239717
184 1 0.883419 0.751137 0.25137
185 1 0.994729 0.88856 0.250405
186 1 0.126256 0.893867 0.234823
187 1 0.249171 0.872204 0.248413
188 1 0.380924 0.8734 0.247812
189 1 0.500799 0.86376 0.261761
190 1 0.617687 0.88261 0.239415
191 1 0.733862 0.889535 0.245244
192 1 0.870988 0.887903 0.252286
193 1 0.00858139 -0.00752866 0.381755
194 1 0.12113 0.00864762 0.377411
195 1 0.255048 1.00202 0.376569
196 1 0.381723 0.99453 0.378394
197 1 0.486602 -6.2312e-05 0.39053
198 1 0.610972 0.0192151 0.363063
199 1 0.743719 1.01284 0.366073
200 1 0.863582 1.0077 0.371042
201 1 0.000448183 0.137227 0.371378
202 1 0.134235 0.120558 0.37117
203 1 0.24835 0.121878 0.384249
204 1 0.357058 0.144646 0.382392
205 1 0.4893 0.130995 0.382349
206 1 0.62434 0.134755 0.369176
207 1 0.749242 0.124853 0.377279
208 1 0.884084 0.111412 0.382307
209 1 -0.00610447 0.255108 0.384029
210 1 0.124964 0.23993 0.383634
211 1 0.242493 0.271823 0.370346
212 1 0.371956 0.25975 0.385062
213 1 0.505484 0.252468 0.37993
214 1 0.629594 0.255009 0.367233
215 1 0.748035 0.249019 0.372121
216 1 0.860573 0.262862 0.36987
217 1 0.00776264 0.363894 0.385249
218 1 0.113903 0.387412 0.381699
219 1 0.245011 0.383481 0.376635
220 1 0.373096 0.38586 0.371339
221 1 0.497253 0.385211 0.369817
222 1 0.615157 0.368848 0.376282
223 1 0.735722 0.373818 0.377216
224 1 0.867739 0.377266 0.37013
225 1 0.986301 0.499643 0.384759
226 1 0.122085 0.509039 0.370794
227 1 0.239079 0.516595 0.371557
228 1 0.362184 0.514784 0.373243
229 1 0.48984 0.509857 0.374807
230 1 0.618979 0.492521 0.376659
231 1 0.748605 0.484595 0.385766
232 1 0.869241 0.484626 0.385093
233 1 1.00098 0.622615 0.366698
234 1 0.12256 0.642605 0.368228
235 1 0.250275 0.63757 0.358123
236 1 0.376395 0.634427 0.374264
237 1 0.500274 0.621359 0.385799
238 1 0.621146 0.622209 0.372738
239 1 0.756976 0.610708 0.371008
240 1 0.866667 0.625624 0.369957
241 1 0.00353643 0.745003 0.369321
242 1 0.115833 0.764047 0.370919
243 1 0.248159 0.76152 0.376926
244 1 0.378035 0.757968 0.378516
245 1 0.498772 0.746447 0.39097
246 1 0.631904 0.746768 0.369332
247 1 0.751449 0.74765 0.361563
248 1 0.878091 0.761311 0.370197
249 1 1.00157 0.886757 0.370718
250 1 0.127593 0.871566 0.381443
251 1 0.233254 0.889406 0.385914
252 1 0.385354 0.87169 0.372636
253 1 0.509887 0.862824 0.37992
254 1 0.620726 0.872957 0.377078
255 1 0.745788 0.876787 0.369134
256 1 0.874817 0.873259 0.374626
257 1 0.982401 0.0102141 0.504317
258 1 0.126038 0.00409032 0.495756
259 1 0.249279 0.00198348 0.507475
260 1 0.361242 0.0165407 0.503848
261 1 0.495804 0.00444349 0.504245
262 1 0.628487 -0.00463878 0.502216
263 1 0.737739 1.00073 0.505057
264 1 0.869913 0.997428 0.503797
265 1 1.00425 0.124318 0.496735
266 1 0.128461 0.123279 0.508862
267 1 0.241582 0.138686 0.498906
268 1 0.381012 0.135031 0.492657
269 1 0.495504 0.126958 0.503534
270 1 0.626462 0.127583 0.495451
271 1 0.749962 0.126891 0.497255
272 1 0.871455 0.132374 0.507332
273 1 -0.0014976 0.239201 0.512745
274 1 0.117844 0.257377 0.497177
275 1 0.251255 0.248484 0.507221
276 1 0.38571 0.256681 0.496139
277 1 0.507507 0.251415 0.500726
278 1 0.630058 0.244648 0.501921
279 1 0.743666 0.254366 0.511356
280 1 0.878641 0.254854 0.504138
281 1 0.000516547 0.377322 0.498694
282 1 0.129243 0.364942 0.501419
283 1 0.241081 0.389753 0.496165
284 1 0.379407 0.39273 0.482154
285 1 0.495846 0.370027 0.51628
286 1 0.627745 0.370087 0.506481
287 1 0.748484 0.378081 0.506363
288 1 0.884239 0.367863 0.498487
289 1 1.01043 0.490936 0.501516
290 1 0.122379 0.51091 0.486862
291 1 0.258126 0.508339 0.495759
292 1 0.381224 0.499134 0.494307
293 1 0.488532 0.500736 0.504765
294 1 0.628151 0.502491 0.501912
295 1 0.744859 0.512971 0.491567
296 1 0.8763 0.487217 0.511005
297 1 0.998632 0.630537 0.483674
298 1 0.136561 0.630613 0.486845
299 1 0.2478 0.643183 0.487466
300 1 0.369585 0.621602 0.517576
301 1 0.499694 0.618104 0.510964
302 1 0.620844 0.630719 0.493982
303 1 0.750212 0.627556 0.486883
304 1 0.87379 0.617449 0.496146
305 1 -0.00103947 0.762617 0.489145
306 1 0.115222 0.762259 0.505896
307 1 0.252038 0.764211 0.498346
308 1 0.37619 0.755259 0.504045
309 1 0.502531 0.738319 0.503981
310 1 0.610671 0.763041 0.499312
311 1 0.752781 0.741818 0.489222
312 1 0.8697 0.75682 0.491738
313 1 0.990651 0.886599 0.503513
314 1 0.118508 0.884478 0.507465
315 1 0.253721 0.877743 0.51104
316 1 0.381601 0.873578 0.491497
317 1 0.492664 0.8813 0.510674
318 1 0.615974 0.890548 0.492573
319 1 0.758999 0.864923 0.487311
320 1 0.870124 0.877974 0.498034
321 1 1.00416 -0.00365938 0.619389
322 1 0.121376 0.00139656 0.626007
323 1 0.23515 0.0153055 0.626735
324 1 0.369263 0.00666486 0.625856
325 1 0.494145 0.00613391 0.621801
326 1 0.621984 -0.00737214 0.634411
327 1 0.75138 0.998602 0.621384
328 1 0.87676 0.991066 0.634258
329 1 1.00643 0.113095 0.627878
330 1 0.111282 0.133252 0.629846
331 1 0.24184 0.126599 0.621426
332 1 0.362345 0.1423 0.622761
333 1 0.504498 0.132726 0.626485
334 1 0.633472 0.121233 0.623163
335 1 0.755646 0.107115 0.638307
336 1 0.872107 0.120028 0.626861
337 1 0.982197 0.250099 0.644676
338 1 0.112021 0.255076 0.628333
339 1 0.241645 0.255501 0.623647
340 1 0.383941 0.255119 0.627359
341 1 0.505342 0.249639 0.628767
342 1 0.632184 0.238089 0.6385
343 1 0.7592 0.257782 0.624317
344 1 0.87755 0.232748 0.64169
345 1 0.994155 0.371612 0.620267
346 1 0.123914 0.381883 0.61567
347 1 0.248224 0.383689 0.618775
348 1 0.371463 0.376829 0.631152
349 1 0.502253 0.380254 0.627363
350 1 0.624908 0.365093 0.630195
351 1 0.747437 0.389482 0.617055
352 1 0.865827 0.377943 0.636714
353 1 0.994968 0.506368 0.621367
354 1 0.128854 0.511883 0.595381
355 1 0.25777 0.500457 0.616105
356 1 0.37653 0.499263 0.642924
357 1 0.485994 0.513981 0.641516
358 1 0.623792 0.507468 0.624107
359 1 0.738896 0.509637 0.630321
360 1 0.875266 0.508564 0.6186
361 1 0.00159383 0.625957 0.610545
362 1 0.132823 0.624707 0.611956
363 1 0.249225 0.629539 0.622063
364 1 0.368683 0.637648 0.624254
365 1 0.503143 0.627234 0.626782
366 1 0.625965 0.640004 0.612039
367 1 0.750248 0.628611 0.61253
368 1 0.867389 0.630896 0.617554
369 1 1.00448 0.728447 0.635383
370 1 0.129801 0.759231 0.627713
371 1 0.244953 0.762865 0.625011
372 1 0.373109 0.767034 0.616383
373 1 0.503148 0.758066 0.618917
374 1 0.624458 0.751307 0.624271
375 1 0.749409 0.753388 0.616508
376 1 0.868355 0.756381 0.618906
377 1 -0.00440135 0.878926 0.624378
378 1 0.124799 0.884554 0.62265
379 1 0.255681 0.887593 0.624755
380 1 0.366587 0.890563 0.629655
381 1 0.513516 0.872852 0.623826
382 1 0.633441 0.874172 0.62367
383 1 0.757973 0.87217 0.609368
384 1 0.876855 0.864323 0.628829
385 1 1.00021 0.987753 0.749281
386 1 0.112115 0.0045523 0.755588
387 1 0.248407 -0.00466407 0.743555
388 1 0.36835 0.00732703 0.740346
389 1 0.513225 -0.0037158 0.749275
390 1 0.634952 0.996495 0.749071
391 1 0.754811 0.988206 0.756693
392 1 0.860044 1.00592 0.755478
393 1 0.996681 0.125609 0.754005
394 1 0.116783 0.130707 0.758039
395 1 0.252191 0.11921 0.745439
396 1 0.383113 0.128454 0.751879
397 1 0.516944 0.121116 0.744775
398 1 0.640528 0.118805 0.757565
399 1 0.752334 0.140554 0.739356
400 1 0.870766 0.115125 0.762817
401 1 1.00056 0.260069 0.746993
402 1 0.128905 0.25243 0.74857
403 1 0.249698 0.262769 0.737142
404 1 0.371111 0.246261 0.755065
405 1 0.494004 0.250425 0.752477
406 1 0.622101 0.24784 0.757997
407 1 0.748269 0.255288 0.759675
408 1 0.866855 0.252654 0.764821
409 1 0.00441062 0.384064 0.734039
410 1 0.111656 0.380171 0.758363
411 1 0.232934 0.381117 0.754815
412 1 0.359944 0.373678 0.758069
413 1 0.499547 0.370986 0.753397
414 1 0.631133 0.373277 0.749488
415 1 0.740184 0.39291 0.749079
416 1 0.877505 0.385225 0.740926
417 1 -0.00277365 0.506218 0.741336
418 1 0.131208 0.496002 0.743
419 1 0.242564 0.501003 0.760129
420 1 0.370667 0.50596 0.749249
421 1 0.505796 0.469055 0.766686
422 1 0.611228 0.506247 0.75338
423 1 0.737594 0.509715 0.750495
424 1 0.87688 0.506443 0.746569
425 1 1.01205 0.610941 0.751847
426 1 0.116884 0.612896 0.75794
427 1 0.240368 0.638746 0.749329
428 1 0.374147 0.627483 0.74112
429 1 0.492897 0.623003 0.743847
430 1 0.619219 0.623557 0.76035
431 1 0.754764 0.634987 0.733822
432 1 0.87694 0.634978 0.745964
433 1 0.0065377 0.752197 0.734135
434 1 0.118366 0.753569 0.742101
435 1 0.25968 0.763114 0.738259
436 1 0.387301 0.750315 0.747504
437 1 0.500227 0.743115 0.762572
438 1 0.617838 0.745157 0.75185
439 1 0.753949 0.749863 0.743811
440 1 0.884815 0.748504 0.741418
441 1 0.00292237 0.869057 0.753499
442 1 0.125542 0.883106 0.741124
443 1 0.256484 0.877568 0.754013
444 1 0.38994 0.872524 0.739464
445 1 0.508126 0.871619 0.743293
446 1 0.63508 0.866104 0.749686
447 1 0.741531 0.877729 0.75182
448 1 0.872925 0.868286 0.753968
449 1 1.00071 1.00151 0.872678
450 1 0.133143 -0.0101599 0.877625
451 1 0.252011 -0.00300192 0.868164
452 1 0.382246 0.994034 0.876551
453 1 0.50756 0.989339 0.867363
454 1 0.627687 0.985809 0.872016
455 1 0.744817 0.997143 0.878307
456 1 0.889729 0.992844 0.867785
457 1 1.00308 0.116757 0.873616
458 1 0.123449 0.127661 0.875573
459 1 0.258798 0.123016 0.860758
460 1 0.384907 0.120861 0.876289
461 1 0.516046 0.115185 0.867733
462 1 0.625342 0.123702 0.882722
463 1 0.752806 0.134799 0.872595
464 1 0.870905 0.116885 0.88248
465 1 0.00788009 0.252329 0.869251
466 1 0.129888 0.248401 0.875044
467 1 0.253197 0.249405 0.871952
468 1 0.363515 0.255671 0.884758
469 1 0.493702 0.240221 0.876836
470 1 0.616801 0.250461 0.877383
471 1 0.744333 0.255219 0.880799
472 1 0.888475 0.23317 0.880227
473 1 1.00359 0.368018 0.872086
474 1 0.13147 0.359629 0.877684
475 1 0.239246 0.378191 0.880816
476 1 0.373359 0.376993 0.873208
477 1 0.501409 0.35789 0.885579
478 1 0.632672 0.374763 0.860757
479 1 0.760613 0.380278 0.872192
480 1 0.880228 0.370911 0.863233
481 1 0.00487953 0.479883 0.86808
482 1 0.118156 0.501864 0.881939
483 1 0.236842 0.50206 0.883129
484 1 0.368523 0.496585 0.881851
485 1 0.496682 0.490354 0.876393
486 1 0.638373 0.482645 0.875445
487 1 0.757589 0.500662 0.870069
488 1 0.870979 0.495182 0.886428
489 1 -0.0114789 0.616692 0.881677
490 1 0.126813 0.627814 0.875949
491 1 0.254525 0.621004 0.881073
492 1 0.361573 0.632333 0.879875
493 1 0.490814 0.621593 0.876441
494 1 0.621834 0.620943 0.876434
495 1 0.750292 0.629865 0.861372
496 1 0.881668 0.6181 0.869001
497 1 1.00685 0.736897 0.865515
498 1 0.127461 0.752923 0.856024
499 1 0.250434 0.748871 0.872216
500 1 0.363217 0.752645 0.883862
501 1 0.501385 0.745401 0.875415
502 1 0.636268 0.735062 0.873462
503 1 0.761971 0.737747 0.869908
504 1 0.885441 0.73885 0.864151
505 1 1.01114 0.86259 0.874812
506 1 0.126375 0.875129 0.867179
507 1 0.243957 0.864316 0.888098
508 1 0.378781 0.875787 0.862278
509 1 0.515042 0.852817 0.876773
510 1 0.6366 0.855365 0.874607
511 1 0.752546 0.851511 0.880362
512 1 0.892216 0.869529 0.862258
ITEM: TIMESTEP
100000
ITEM: NUMBER OF ATOMS
512
ITEM: BOX BOUNDS xy xz yz pp pp pp
-1.4047295810937932e-01 5.6397477804229290e+01 1.4134487688059375e+01
-1.2165315025325540e-01 3.2520547940387793e+01 1.4134487688059375e+01