ITEM: TIMESTEP
0
ITEM: NUMBER OF ATOMS
512
ITEM: BOX BOUNDS xy xz yz pp pp pp
0.0000000000000000e+00 4.5782964489999998e+01 1.1445741119999999e+01
0.0000000000000000e+00 2.6432806880000001e+01 1.1445741119999999e+01
0.0000000000000000e+00 1.8690816980000001e+01 6.6082017200000003e+00
ITEM: ATOMS id type xs ys zs
1 1 0 0 0
2 1 0.125 0 0
3 1 0.25 0 0
4 1 0.375 0 0
5 1 0.5 0 0
6 1 0.625 0 0
7 1 0.75 0 0
8 1 0.875 0 0
9 1 1 0.125 0
10 1 0.125 0.125 0
11 1 0.25 0.125 0
12 1 0.375 0.125 0
13 1 0.5 0.125 0
14 1 0.625 0.125 0
15 1 0.75 0.125 0
16 1 0.875 0.125 0
17 1 1 0.25 0
18 1 0.125 0.25 0
19 1 0.25 0.25 0
20 1 0.375 0.25 0
21 1 0.5 0.25 0
22 1 0.625 0.25 0
23 1 0.75 0.25 0
24 1 0.875 0.25 0
25 1 1 0.375 0
26 1 0.125 0.375 0
27 1 0.25 0.375 0
28 1 0.375 0.375 0
29 1 0.5 0.375 0
30 1 0.625 0.375 0
31 1 0.75 0.375 0
32 1 0.875 0.375 0
33 1 3.30915e-10 0.5 0
34 1 0.125 0.5 0
35 1 0.25 0.5 0
36 1 0.375 0.5 0
37 1 0.5 0.5 0
38 1 0.625 0.5 0
39 1 0.75 0.5 0
40 1 0.875 0.5 0
41 1 1 0.625 0
42 1 0.125 0.625 0
43 1 0.25 0.625 0
44 1 0.375 0.625 0
45 1 0.5 0.625 0
46 1 0.625 0.625 0
47 1 0.75 0.625 0
48 1 0.875 0.625 0
49 1 1 0.75 0
50 1 0.125 0.75 0
51 1 0.25 0.75 0
52 1 0.375 0.75 0
53 1 0.5 0.75 0
54 1 0.625 0.75 0
55 1 0.75 0.75 0
56 1 0.875 0.75 0
57 1 1.87154e-10 0.875 0
58 1 0.125 0.875 0
59 1 0.25 0.875 0
60 1 0.375 0.875 0
61 1 0.5 0.875 0
62 1 0.625 0.875 0
63 1 0.75 0.875 0
64 1 0.875 0.875 0
65 1 1 6.95292e-10 0.125
66 1 0.125 6.95292e-10 0.125
67 1 0.25 6.95292e-10 0.125
68 1 0.375 6.95292e-10 0.125
69 1 0.5 6.95292e-10 0.125
70 1 0.625 6.95292e-10 0.125
71 1 0.75 6.95292e-10 0.125
72 1 0.875 6.95292e-10 0.125
73 1 9.27557e-12 0.125 0.125
74 1 0.125 0.125 0.125
75 1 0.25 0.125 0.125
76 1 0.375 0.125 0.125
77 1 0.5 0.125 0.125
78 1 0.625 0.125 0.125
79 1 0.75 0.125 0.125
80 1 0.875 0.125 0.125
81 1 1 0.25 0.125
82 1 0.125 0.25 0.125
83 1 0.25 0.25 0.125
84 1 0.375 0.25 0.125
85 1 0.5 0.25 0.125
86 1 0.625 0.25 0.125
87 1 0.75 0.25 0.125
88 1 0.875 0.25 0.125
89 1 2.67049e-10 0.375 0.125
90 1 0.125 0.375 0.125
91 1 0.25 0.375 0.125
92 1 0.375 0.375 0.125
93 1 0.5 0.375 0.125
94 1 0.625 0.375 0.125
95 1 0.75 0.375 0.125
96 1 0.875 0.375 0.125
97 1 1 0.5 0.125
98 1 0.125 0.5 0.125
99 1 0.25 0.5 0.125
100 1 0.375 0.5 0.125
101 1 0.5 0.5 0.125
102 1 0.625 0.5 0.125
103 1 0.75 0.5 0.125
104 1 0.875 0.5 0.125
105 1 1 0.625 0.125
106 1 0.125 0.625 0.125
107 1 0.25 0.625 0.125
108 1 0.375 0.625 0.125
109 1 0.5 0.625 0.125
110 1 0.625 0.625 0.125
111 1 0.75 0.625 0.125
112 1 0.875 0.625 0.125
113 1 1.23288e-10 0.75 0.125
114 1 0.125 0.75 0.125
115 1 0.25 0.75 0.125
116 1 0.375 0.75 0.125
117 1 0.5 0.75 0.125
118 1 0.625 0.75 0.125
119 1 0.75 0.75 0.125
120 1 0.875 0.75 0.125
121 1 4.13332e-10 0.875 0.125
122 1 0.125 0.875 0.125
123 1 0.25 0.875 0.125
124 1 0.375 0.875 0.125
125 1 0.5 0.875 0.125
126 1 0.625 0.875 0.125
127 1 0.75 0.875 0.125
128 1 0.875 0.875 0.125
129 1 1 1.98351e-10 0.25
130 1 0.125 1.98351e-10 0.25
131 1 0.25 1.98351e-10 0.25
132 1 0.375 1.98351e-10 0.25
133 1 0.5 1.98351e-10 0.25
134 1 0.625 1.98351e-10 0.25
135 1 0.75 1.98351e-10 0.25
136 1 0.875 1.98351e-10 0.25
137 1 1 0.125 0.25
138 1 0.125 0.125 0.25
139 1 0.25 0.125 0.25
140 1 0.375 0.125 0.25
141 1 0.5 0.125 0.25
142 1 0.625 0.125 0.25
143 1 0.75 0.125 0.25
144 1 0.875 0.125 0.25
145 1 2.77054e-10 0.25 0.25
146 1 0.125 0.25 0.25
147 1 0.25 0.25 0.25
148 1 0.375 0.25 0.25
149 1 0.5 0.25 0.25
150 1 0.625 0.25 0.25
151 1 0.75 0.25 0.25
152 1 0.875 0.25 0.25
153 1 1 0.375 0.25
154 1 0.125 0.375 0.25
155 1 0.25 0.375 0.25
156 1 0.375 0.375 0.25
157 1 0.5 0.375 0.25
158 1 0.625 0.375 0.25
159 1 0.75 0.375 0.25
160 1 0.875 0.375 0.25
161 1 1 0.5 0.25
162 1 0.125 0.5 0.25
163 1 0.25 0.5 0.25
164 1 0.375 0.5 0.25
165 1 0.5 0.5 0.25
166 1 0.625 0.5 0.25
167 1 0.75 0.5 0.25
168 1 0.875 0.5 0.25
169 1 1.33293e-10 0.625 0.25
170 1 0.125 0.625 0.25
171 1 0.25 0.625 0.25
172 1 0.375 0.625 0.25
173 1 0.5 0.625 0.25
174 1 0.625 0.625 0.25
175 1 0.75 0.625 0.25
176 1 0.875 0.625 0.25
177 1 1.71125e-10 0.75 0.25
178 1 0.125 0.75 0.25
179 1 0.25 0.75 0.25
180 1 0.375 0.75 0.25
181 1 0.5 0.75 0.25
182 1 0.625 0.75 0.25
183 1 0.75 0.75 0.25
184 1 0.875 0.75 0.25
185 1 1 0.875 0.25
186 1 0.125 0.875 0.25
187 1 0.25 0.875 0.25
188 1 0.375 0.875 0.25
189 1 0.5 0.875 0.25
190 1 0.625 0.875 0.25
191 1 0.75 0.875 0.25
192 1 0.875 0.875 0.25
193 1 1 3.89219e-10 0.375
194 1 0.125 3.89219e-10 0.375
195 1 0.25 3.89219e-10 0.375
196 1 0.375 3.89219e-10 0.375
197 1 0.5 3.89219e-10 0.375
198 1 0.625 3.89219e-10 0.375
199 1 0.75 3.89219e-10 0.375
200 1 0.875 3.89219e-10 0.375
201 1 2.13188e-10 0.125 0.375
202 1 0.125 0.125 0.375
203 1 0.25 0.125 0.375
204 1 0.375 0.125 0.375
205 1 0.5 0.125 0.375
206 1 0.625 0.125 0.375
207 1 0.75 0.125 0.375
208 1 0.875 0.125 0.375
209 1 1 0.25 0.375
210 1 0.125 0.25 0.375
211 1 0.25 0.25 0.375
212 1 0.375 0.25 0.375
213 1 0.5 0.25 0.375
214 1 0.625 0.25 0.375
215 1 0.75 0.25 0.375
216 1 0.875 0.25 0.375
217 1 1 0.375 0.375
218 1 0.125 0.375 0.375
219 1 0.25 0.375 0.375
220 1 0.375 0.375 0.375
221 1 0.5 0.375 0.375
222 1 0.625 0.375 0.375
223 1 0.75 0.375 0.375
224 1 0.875 0.375 0.375
225 1 6.94274e-11 0.5 0.375
226 1 0.125 0.5 0.375
227 1 0.25 0.5 0.375
228 1 0.375 0.5 0.375
229 1 0.5 0.5 0.375
230 1 0.625 0.5 0.375
231 1 0.75 0.5 0.375
232 1 0.875 0.5 0.375
233 1 3.59471e-10 0.625 0.375
234 1 0.125 0.625 0.375
235 1 0.25 0.625 0.375
236 1 0.375 0.625 0.375
237 1 0.5 0.625 0.375
238 1 0.625 0.625 0.375
239 1 0.75 0.625 0.375
240 1 0.875 0.625 0.375
241 1 1 0.75 0.375
242 1 0.125 0.75 0.375
243 1 0.25 0.75 0.375
244 1 0.375 0.75 0.375
245 1 0.5 0.75 0.375
246 1 0.625 0.75 0.375
247 1 0.75 0.75 0.375
248 1 0.875 0.75 0.375
249 1 1.804e-10 0.875 0.375
250 1 0.125 0.875 0.375
251 1 0.25 0.875 0.375
252 1 0.375 0.875 0.375
253 1 0.5 0.875 0.375
254 1 0.625 0.875 0.375
255 1 0.75 0.875 0.375
256 1 0.875 0.875 0.375
257 1 4.01534e-10 7.06194e-11 0.5
258 1 0.125 7.06194e-11 0.5
259 1 0.25 7.06194e-11 0.5
260 1 0.375 7.06194e-11 0.5
261 1 0.5 7.06194e-11 0.5
262 1 0.625 7.06194e-11 0.5
263 1 0.75 7.06194e-11 0.5
264 1 0.875 7.06194e-11 0.5
265 1 1 0.125 0.5
266 1 0.125 0.125 0.5
267 1 0.25 0.125 0.5
268 1 0.375 0.125 0.5
269 1 0.5 0.125 0.5
270 1 0.625 0.125 0.5
271 1 0.75 0.125 0.5
272 1 0.875 0.125 0.5
273 1 1 0.25 0.5
274 1 0.125 0.25 0.5
275 1 0.25 0.25 0.5
276 1 0.375 0.25 0.5
277 1 0.5 0.25 0.5
278 1 0.625 0.25 0.5
279 1 0.75 0.25 0.5
280 1 0.875 0.25 0.5
281 1 2.57773e-10 0.375 0.5
282 1 0.125 0.375 0.5
283 1 0.25 0.375 0.5
284 1 0.375 0.375 0.5
285 1 0.5 0.375 0.5
286 1 0.625 0.375 0.5
287 1 0.75 0.375 0.5
288 1 0.875 0.375 0.5
289 1 2.95605e-10 0.5 0.5
290 1 0.125 0.5 0.5
291 1 0.25 0.5 0.5
292 1 0.375 0.5 0.5
293 1 0.5 0.5 0.5
294 1 0.625 0.5 0.5
295 1 0.75 0.5 0.5
296 1 0.875 0.5 0.5
297 1 1 0.625 0.5
298 1 0.125 0.625 0.5
299 1 0.25 0.625 0.5
300 1 0.375 0.625 0.5
301 1 0.5 0.625 0.5
302 1 0.625 0.625 0.5
303 1 0.75 0.625 0.5
304 1 0.875 0.625 0.5
305 1 3.68746e-10 0.75 0.5
306 1 0.125 0.75 0.5
307 1 0.25 0.75 0.5
308 1 0.375 0.75 0.5
309 1 0.5 0.75 0.5
310 1 0.625 0.75 0.5
311 1 0.75 0.75 0.5
312 1 0.875 0.75 0.5
313 1 1.51844e-10 0.875 0.5
314 1 0.125 0.875 0.5
315 1 0.25 0.875 0.5
316 1 0.375 0.875 0.5
317 1 0.5 0.875 0.5
318 1 0.625 0.875 0.5
319 1 0.75 0.875 0.5
320 1 0.875 0.875 0.5
321 1 1 4.0923e-10 0.625
322 1 0.125 4.0923e-10 0.625
323 1 0.25 4.0923e-10 0.625
324 1 0.375 4.0923e-10 0.625
325 1 0.5 4.0923e-10 0.625
326 1 0.625 4.0923e-10 0.625
327 1 0.75 4.0923e-10 0.625
328 1 0.875 4.0923e-10 0.625
329 1 1 0.125 0.625
330 1 0.125 0.125 0.625
331 1 0.25 0.125 0.625
332 1 0.375 0.125 0.625
333 1 0.5 0.125 0.625
334 1 0.625 0.125 0.625
335 1 0.75 0.125 0.625
336 1 0.875 0.125 0.625
337 1 1 0.25 0.625
338 1 0.125 0.25 0.625
339 1 0.25 0.25 0.625
340 1 0.375 0.25 0.625
341 1 0.5 0.25 0.625
342 1 0.625 0.25 0.625
343 1 0.75 0.25 0.625
344 1 0.875 0.25 0.625
345 1 1 0.375 0.625
346 1 0.125 0.375 0.625
347 1 0.25 0.375 0.625
348 1 0.375 0.375 0.625
349 1 0.5 0.375 0.625
350 1 0.625 0.375 0.625
351 1 0.75 0.375 0.625
352 1 0.875 0.375 0.625
353 1 1 0.5 0.625
354 1 0.125 0.5 0.625
355 1 0.25 0.5 0.625
356 1 0.375 0.5 0.625
357 1 0.5 0.5 0.625
358 1 0.625 0.5 0.625
359 1 0.75 0.5 0.625
360 1 0.875 0.5 0.625
361 1 1 0.625 0.625
362 1 0.125 0.625 0.625
363 1 0.25 0.625 0.625
364 1 0.375 0.625 0.625
365 1 0.5 0.625 0.625
366 1 0.625 0.625 0.625
367 1 0.75 0.625 0.625
368 1 0.875 0.625 0.625
369 1 1 0.75 0.625
370 1 0.125 0.75 0.625
371 1 0.25 0.75 0.625
372 1 0.375 0.75 0.625
373 1 0.5 0.75 0.625
374 1 0.625 0.75 0.625
375 1 0.75 0.75 0.625
376 1 0.875 0.75 0.625
377 1 2.13406e-11 0.875 0.625
378 1 0.125 0.875 0.625
379 1 0.25 0.875 0.625
380 1 0.375 0.875 0.625
381 1 0.5 0.875 0.625
382 1 0.625 0.875 0.625
383 1 0.75 0.875 0.625
384 1 0.875 0.875 0.625
385 1 1 9.06298e-11 0.75
386 1 0.125 9.06298e-11 0.75
387 1 0.25 9.06298e-11 0.75
388 1 0.375 9.06298e-11 0.75
389 1 0.5 9.06298e-11 0.75
390 1 0.625 9.06298e-11 0.75
391 1 0.75 9.06298e-11 0.75
392 1 0.875 9.06298e-11 0.75
393 1 2.5572e-11 0.125 0.75
394 1 0.125 0.125 0.75
395 1 0.25 0.125 0.75
396 1 0.375 0.125 0.75
397 1 0.5 0.125 0.75
398 1 0.625 0.125 0.75
399 1 0.75 0.125 0.75
400 1 0.875 0.125 0.75
401 1 6.34037e-11 0.25 0.75
402 1 0.125 0.25 0.75
403 1 0.25 0.25 0.75
404 1 0.375 0.25 0.75
405 1 0.5 0.25 0.75
406 1 0.625 0.25 0.75
407 1 0.75 0.25 0.75
408 1 0.875 0.25 0.75
409 1 1 0.375 0.75
410 1 0.125 0.375 0.75
411 1 0.25 0.375 0.75
412 1 0.375 0.375 0.75
413 1 0.5 0.375 0.75
414 1 0.625 0.375 0.75
415 1 0.75 0.375 0.75
416 1 0.875 0.375 0.75
417 1 1.36545e-10 0.5 0.75
418 1 0.125 0.5 0.75
419 1 0.25 0.5 0.75
420 1 0.375 0.5 0.75
421 1 0.5 0.5 0.75
422 1 0.625 0.5 0.75
423 1 0.75 0.5 0.75
424 1 0.875 0.5 0.75
425 1 1 0.625 0.75
426 1 0.125 0.625 0.75
427 1 0.25 0.625 0.75
428 1 0.375 0.625 0.75
429 1 0.5 0.625 0.75
430 1 0.625 0.625 0.75
431 1 0.75 0.625 0.75
432 1 0.875 0.625 0.75
433 1 1 0.75 0.75
434 1 0.125 0.75 0.75
435 1 0.25 0.75 0.75
436 1 0.375 0.75 0.75
437 1 0.5 0.75 0.75
438 1 0.625 0.75 0.75
439 1 0.75 0.75 0.75
440 1 0.875 0.75 0.75
441 1 1 0.875 0.75
442 1 0.125 0.875 0.75
443 1 0.25 0.875 0.75
444 1 0.375 0.875 0.75
445 1 0.5 0.875 0.75
446 1 0.625 0.875 0.75
447 1 0.75 0.875 0.75
448 1 0.875 0.875 0.75
449 1 1 2.81498e-10 0.875
450 1 0.125 2.81498e-10 0.875
451 1 0.25 2.81498e-10 0.875
452 1 0.375 2.81498e-10 0.875
453 1 0.5 2.81498e-10 0.875
454 1 0.625 2.81498e-10 0.875
455 1 0.75 2.81498e-10 0.875
456 1 0.875 2.81498e-10 0.875
457 1 1 0.125 0.875
458 1 0.125 0.125 0.875
459 1 0.25 0.125 0.875
460 1 0.375 0.125 0.875
461 1 0.5 0.125 0.875
462 1 0.625 0.125 0.875
463 1 0.75 0.125 0.875
464 1 0.875 0.125 0.875
465 1 1 0.25 0.875
466 1 0.125 0.25 0.875
467 1 0.25 0.25 0.875
468 1 0.375 0.25 0.875
469 1 0.5 0.25 0.875
470 1 0.625 0.25 0.875
471 1 0.75 0.25 0.875
472 1 0.875 0.25 0.875
473 1 7.26793e-11 0.375 0.875
474 1 0.125 0.375 0.875
475 1 0.25 0.375 0.875
476 1 0.375 0.375 0.875
477 1 0.5 0.375 0.875
478 1 0.625 0.375 0.875
479 1 0.75 0.375 0.875
480 1 0.875 0.375 0.875
481 1 1 0.5 0.875
482 1 0.125 0.5 0.875
483 1 0.25 0.5 0.875
484 1 0.375 0.5 0.875
485 1 0.5 0.5 0.875
486 1 0.625 0.5 0.875
487 1 0.75 0.5 0.875
488 1 0.875 0.5 0.875
489 1 1.45821e-10 0.625 0.875
490 1 0.125 0.625 0.875
491 1 0.25 0.625 0.875
492 1 0.375 0.625 0.875
493 1 0.5 0.625 0.875
494 1 0.625 0.625 0.875
495 1 0.75 0.625 0.875
496 1 0.875 0.625 0.875
497 1 1 0.75 0.875
498 1 0.125 0.75 0.875
499 1 0.25 0.75 0.875
500 1 0.375 0.75 0.875
501 1 0.5 0.75 0.875
502 1 0.625 0.75 0.875
503 1 0.75 0.75 0.875
504 1 0.875 0.75 0.875
505 1 1 0.875 0.875
506 1 0.125 0.875 0.875
507 1 0.25 0.875 0.875
508 1 0.375 0.875 0.875
509 1 0.5 0.875 0.875
510 1 0.625 0.875 0.875
511 1 0.75 0.875 0.875
512 1 0.875 0.875 0.875
ITEM: TIMESTEP
50000
ITEM: NUMBER OF ATOMS
512
ITEM: BOX BOUNDS xy xz yz pp pp pp
-7.6353998223497754e-02 4.6012026484603140e+01 1.1522095118189929e+01
-6.6124502145951780e-02 2.6543014383575720e+01 1.1522095118189929e+01
-6.2342778457960435e-02 1.8753159758457222e+01 6.6522847214308705e+00
ITEM: ATOMS id type xs ys zs
1 1 0.00315844 -0.00212743 -0.00582661
2 1 0.124762 -8.68486e-05 -0.00972313
3 1 0.245988 -2.11723e-05 -0.0126486
4 1 0.374447 -0.000326164 -0.00828783
5 1 0.49631 -0.00616198 0.000818569
6 1 0.624335 -0.010342 -0.00137417
7 1 0.737424 0.00158282 0.00885423
8 1 0.868925 0.00196606 0.00400353
9 1 0.997385 0.121201 0.00243177
10 1 0.130188 0.120451 -0.000724948
11 1 0.241341 0.13013 0.000244732
12 1 0.368209 0.118876 0.00426239
13 1 0.497937 0.125098 -0.0022434
14 1 0.623111 0.122798 -9.15843e-05
15 1 0.752704 0.124466 -0.0013674
16 1 0.880658 0.120014 -0.00164409
17 1 1.00391 0.246056 -0.00672912
18 1 0.118633 0.249772 0.000115222
19 1 0.252426 0.251755 0.000762399
20 1 0.374986 0.242588 -0.000164162
21 1 0.498432 0.264194 -0.00368149
22 1 0.63098 0.249352 -0.00357978
23 1 0.758414 0.242289 -0.00579788
24 1 0.879758 0.251592 -0.00962348
25 1 1.00128 0.375838 0.000432705
26 1 0.121809 0.377114 0.00303254
27 1 0.257131 0.371652 0.00220793
28 1 0.376645 0.388302 -0.00682929
29 1 0.508099 0.371224 0.0100548
30 1 0.633975 0.369602 0.00230303
31 1 0.753897 0.373309 -0.00273929
32 1 0.883189 0.378969 -0.00244063
33 1 0.00253366 0.496807 0.00490316
34 1 0.130091 0.499705 0.0043027
35 1 0.248627 0.500319 0.00656183
36 1 0.382332 0.497149 0.00344381
37 1 0.50371 0.494776 0.00298983
38 1 0.630195 0.502743 -0.00573874
39 1 0.751735 0.494468 0.00546777
40 1 0.880248 0.496338 0.00447851
41 1 0.99977 0.619834 -0.00113322
42 1 0.118407 0.620097 0.00901517
43 1 0.257833 0.618384 0.000872155
44 1 0.370927 0.619451 0.0103727
45 1 0.501988 0.627392 -0.00428537
46 1 0.634148 0.619203 -0.00650994
47 1 0.753163 0.624703 -0.00260293
48 1 0.872026 0.6195 0.00538199
49 1 0.992435 0.751982 0.00578321
50 1 0.124467 0.746224 0.000193807
51 1 0.255255 0.744774 0.00300335
52 1 0.383467 0.74615 -0.00290179
53 1 0.513922 0.746065 -0.0145533
54 1 0.628799 0.746702 -0.00206023
55 1 0.741915 0.7485 0.00890342
56 1 0.865926 0.755741 0.00575391
57 1 -0.0101435 0.878637 0.0023372
58 1 0.137996 0.869269 -0.00313847
59 1 0.255156 0.870775 -0.00294803
60 1 0.380239 0.867745 0.00554719
61 1 0.50314 0.870374 -0.00566868
62 1 0.624136 0.87257 0.00290087
63 1 0.744712 0.87514 0.00255366
64 1 0.871092 0.878705 -0.000944149
65 1 1.00466 -0.00450589 0.123974
66 1 0.121822 0.0113867 0.114733
67 1 0.254785 0.00466805 0.114646
68 1 0.374001 0.00295417 0.129235
69 1 0.505126 -0.000506835 0.114365
70 1 0.623058 0.000952922 0.123235
71 1 0.751304 0.00106465 0.129676
72 1 0.887285 -0.000504897 0.116478
73 1 0.000786785 0.12889 0.125308
74 1 0.119916 0.133981 0.122498
75 1 0.24635 0.124974 0.124711
76 1 0.375126 0.131605 0.117918
77 1 0.494804 0.133744 0.12234
78 1 0.621629 0.127933 0.127419
79 1 0.75247 0.125275 0.120821
80 1 0.871337 0.128089 0.122574
81 1 1.00181 0.246563 0.127645
82 1 0.12026 0.256614 0.12861
83 1 0.250362 0.256574 0.124288
84 1 0.372107 0.263031 0.121177
85 1 0.504856 0.245162 0.13016
86 1 0.632438 0.244918 0.124217
87 1 0.758607 0.24402 0.122445
88 1 0.87225 0.256291 0.119899
89 1 0.00210247 0.375898 0.122404
90 1 0.120835 0.381039 0.126377
91 1 0.248916 0.374129 0.134495
92 1 0.374699 0.37877 0.128224
93 1 0.515365 0.36615 0.131305
94 1 0.632729 0.390051 0.115604
95 1 0.751588 0.368898 0.128633
96 1 0.87355 0.37257 0.134445
97 1 0.995995 0.49917 0.129831
98 1 0.128633 0.500562 0.131313
99 1 0.245696 0.50217 0.125898
100 1 0.374072 0.501592 0.134214
101 1 0.502095 0.502581 0.130254
102 1 0.624552 0.507172 0.126058
103 1 0.743888 0.504649 0.130005
104 1 0.873586 0.497373 0.130993
105 1 0.987339 0.63254 0.131708
106 1 0.108511 0.627792 0.134898
107 1 0.244681 0.616353 0.130138
108 1 0.375514 0.63154 0.124598
109 1 0.506975 0.624558 0.118133
110 1 0.622296 0.626889 0.129292
111 1 0.751478 0.624605 0.125549
112 1 0.875606 0.620424 0.123658
113 1 -0.0163376 0.756754 0.12804
114 1 0.130561 0.748141 0.114031
115 1 0.253632 0.7496 0.123151
116 1 0.381912 0.756137 0.118851
117 1 0.498818 0.754373 0.121339
118 1 0.618683 0.747317 0.134968
119 1 0.753204 0.742546 0.132104
120 1 0.864057 0.749319 0.139502
121 1 0.00711172 0.868935 0.119249
122 1 0.126254 0.86927 0.12249
123 1 0.256118 0.876041 0.125972
124 1 0.375348 0.87784 0.128766
125 1 0.502076 0.879772 0.121406
126 1 0.627695 0.870749 0.121486
127 1 0.743945 0.875647 0.131202
128 1 0.871488 0.879861 0.124024
129 1 1.00518 -0.00515843 0.254554
130 1 0.128221 0.00546436 0.245044
131 1 0.261563 -0.00533483 0.24213
132 1 0.374734 0.00994332 0.245624
133 1 0.502161 0.00397111 0.24215
134 1 0.625238 0.0103665 0.242498
135 1 0.760215 0.00218103 0.249201
136 1 0.883916 0.00561612 0.238693
137 1 1.00574 0.121867 0.251859
138 1 0.130359 0.122438 0.254469
139 1 0.252444 0.123387 0.244467
140 1 0.379487 0.127755 0.240278
141 1 0.502228 0.123183 0.250183
142 1 0.627462 0.126568 0.249302
143 1 0.752653 0.133013 0.246081
144 1 0.874486 0.124446 0.249877
145 1 -0.000388998 0.246872 0.251975
146 1 0.134704 0.247232 0.243789
147 1 0.253902 0.252246 0.248208
148 1 0.374963 0.256248 0.250763
149 1 0.495069 0.254779 0.257085
150 1 0.627522 0.253013 0.24311
151 1 0.744519 0.250643 0.257796
152 1 0.87308 0.25104 0.254128
153 1 1.00005 0.369602 0.255533
154 1 0.122581 0.368131 0.255497
155 1 0.245891 0.380856 0.259908
156 1 0.38096 0.382974 0.243711
157 1 0.508054 0.371903 0.245402
158 1 0.630196 0.38093 0.247723
159 1 0.754414 0.369078 0.256894
160 1 0.877724 0.372154 0.255877
161 1 0.999216 0.502676 0.246503
162 1 0.115709 0.499023 0.260452
163 1 0.248269 0.502307 0.251295
164 1 0.371081 0.505342 0.256365
165 1 0.506059 0.502927 0.251903
166 1 0.62067 0.504251 0.255005
167 1 0.7422 0.502651 0.255734
168 1 0.871362 0.499522 0.254088
169 1 -0.00885939 0.632113 0.25714
170 1 0.124825 0.622813 0.253493
171 1 0.244945 0.622083 0.25455
172 1 0.376255 0.624287 0.244818
173 1 0.490978 0.626376 0.246374
174 1 0.624472 0.630643 0.249219
175 1 0.747468 0.626455 0.259294
176 1 0.863691 0.625725 0.259337
177 1 0.00903158 0.744673 0.241338
178 1 0.12507 0.745145 0.250218
179 1 0.244687 0.748924 0.245331
180 1 0.374107 0.746402 0.248281
181 1 0.506163 0.752355 0.249644
182 1 0.617764 0.753403 0.25458
183 1 0.742031 0.746486 0.258624
184 1 0.868786 0.749676 0.256889
185 1 1.00444 0.868692 0.257802
186 1 0.123757 0.877577 0.245974
187 1 0.253141 0.878452 0.245921
188 1 0.383955 0.877736 0.248098
189 1 0.504473 0.873876 0.242916
190 1 0.61815 0.881546 0.251611
191 1 0.747572 0.871958 0.258353
192 1 0.891624 0.876062 0.238654
193 1 1.00666 -0.00799212 0.371127
194 1 0.132023 -0.0116263 0.376263
195 1 0.255866 -0.00712293 0.370329
196 1 0.369962 0.00863326 0.366983
197 1 0.511822 0.00653173 0.363823
198 1 0.628416 -0.00538155 0.378697
199 1 0.761719 0.00671455 0.366712
200 1 0.878215 0.00704592 0.366491
201 1 0.0112231 0.120263 0.370498
202 1 0.122181 0.135649 0.379087
203 1 0.255353 0.125449 0.365743
204 1 0.373313 0.132772 0.374897
205 1 0.512649 0.12555 0.372008
206 1 0.641261 0.127365 0.367594
207 1 0.760969 0.130797 0.365773
208 1 0.885177 0.119543 0.377146
209 1 0.996359 0.254376 0.37535
210 1 0.117235 0.251452 0.380326
211 1 0.244707 0.2528 0.373232
212 1 0.378785 0.249382 0.382016
213 1 0.502875 0.255754 0.378286
214 1 0.628041 0.253539 0.373631
215 1 0.755785 0.253986 0.375592
216 1 0.87882 0.244105 0.3855
217 1 0.989924 0.374903 0.379226
218 1 0.1218 0.368647 0.379127
219 1 0.254709 0.362241 0.38358
220 1 0.37902 0.380522 0.365642
221 1 0.500765 0.384542 0.373167
222 1 0.626583 0.373503 0.387024
223 1 0.75371 0.376355 0.382788
224 1 0.870417 0.38155 0.377429
225 1 -0.00998946 0.505686 0.378693
226 1 0.119748 0.494418 0.37976
227 1 0.251975 0.49592 0.371275
228 1 0.377583 0.497885 0.377924
229 1 0.504721 0.509774 0.374913
230 1 0.629191 0.498095 0.376593
231 1 0.742443 0.515587 0.380041
232 1 0.864136 0.507777 0.380346
233 1 0.000883989 0.615896 0.388942
234 1 0.122424 0.615235 0.381536
235 1 0.24799 0.625844 0.37164
236 1 0.38171 0.621177 0.378803
237 1 0.501021 0.626565 0.369564
238 1 0.618902 0.629596 0.382966
239 1 0.744189 0.624816 0.3875
240 1 0.868521 0.629051 0.379522
241 1 1.00407 0.745947 0.372081
242 1 0.126892 0.743434 0.37602
243 1 0.242442 0.752529 0.368755
244 1 0.372015 0.749991 0.382347
245 1 0.494112 0.749605 0.375524
246 1 0.620241 0.754187 0.373441
247 1 0.742855 0.747101 0.385568
248 1 0.869464 0.751812 0.373928
249 1 -0.00259209 0.869995 0.379043
250 1 0.128656 0.86778 0.371966
251 1 0.25576 0.871737 0.375738
252 1 0.380221 0.882943 0.369104
253 1 0.494134 0.876497 0.375399
254 1 0.621132 0.884735 0.376899
255 1 0.751231 0.874875 0.374277
256 1 0.873443 0.87558 0.36941
257 1 -0.00717771 -0.00553695 0.498457
258 1 0.105898 0.0114064 0.505452
259 1 0.2503 -0.000839568 0.496367
260 1 0.366933 0.000307373 0.491939
261 1 0.505028 0.00266892 0.490007
262 1 0.624796 0.00543645 0.496532
263 1 0.7536 0.00613605 0.49305
264 1 0.86918 -0.00143117 0.500417
265 1 0.991169 0.129612 0.491915
266 1 0.131638 0.12031 0.502169
267 1 0.249152 0.130622 0.497188
268 1 0.38077 0.124513 0.497876
269 1 0.506374 0.130796 0.495408
270 1 0.6209 0.124965 0.499115
271 1 0.745156 0.128356 0.497437
272 1 0.862351 0.121824 0.512302
273 1 0.996449 0.253414 0.497575
274 1 0.125316 0.248903 0.505242
275 1 0.255232 0.244322 0.508875
276 1 0.381787 0.253579 0.496833
277 1 0.505022 0.258887 0.493273
278 1 0.634905 0.247358 0.497127
279 1 0.74576 0.254094 0.507855
280 1 0.861527 0.254754 0.510468
281 1 -0.00278521 0.374172 0.496006
282 1 0.122812 0.372143 0.497666
283 1 0.258659 0.369888 0.50328
284 1 0.377729 0.369861 0.505781
285 1 0.497566 0.380621 0.501032
286 1 0.627224 0.378482 0.503894
287 1 0.742946 0.378641 0.50983
288 1 0.86646 0.373151 0.508866
289 1 -0.00397916 0.495446 0.503895
290 1 0.140531 0.488632 0.495937
291 1 0.251583 0.501539 0.499548
292 1 0.37293 0.497536 0.503657
293 1 0.502024 0.498642 0.506552
294 1 0.621752 0.501361 0.506651
295 1 0.745923 0.492739 0.512142
296 1 0.877917 0.500403 0.498594
297 1 1.00139 0.62263 0.504351
298 1 0.126645 0.619915 0.501712
299 1 0.251692 0.624469 0.498974
300 1 0.374201 0.621826 0.508519
301 1 0.496252 0.623143 0.499038
302 1 0.624332 0.6214 0.503152
303 1 0.736763 0.625544 0.509735
304 1 0.865779 0.621439 0.507651
305 1 0.00846027 0.743466 0.496596
306 1 0.126943 0.749239 0.497914
307 1 0.243001 0.745233 0.50584
308 1 0.366375 0.763893 0.499785
309 1 0.490616 0.751264 0.501912
310 1 0.620468 0.746985 0.504107
311 1 0.747546 0.745228 0.503424
312 1 0.876215 0.749573 0.494552
313 1 -0.00705454 0.87728 0.492894
314 1 0.117444 0.872815 0.499085
315 1 0.246624 0.880259 0.49755
316 1 0.369214 0.878449 0.496336
317 1 0.491599 0.883025 0.494739
318 1 0.632282 0.862669 0.500683
319 1 0.744662 0.883145 0.494839
320 1 0.871233 0.87242 0.497882
321 1 0.987318 0.00394346 0.617235
322 1 0.127268 -0.00775893 0.62223
323 1 0.247531 -0.00485805 0.623753
324 1 0.369785 0.00505983 0.617042
325 1 0.502522 0.00422275 0.615712
326 1 0.622549 0.00365071 0.620955
327 1 0.746297 -0.0034631 0.628328
328 1 0.876046 -0.00972824 0.627643
329 1 1.00635 0.119796 0.61228
330 1 0.136757 0.127593 0.620529
331 1 0.250838 0.123924 0.626362
332 1 0.382184 0.117697 0.62382
333 1 0.497967 0.129841 0.621334
334 1 0.62125 0.124743 0.627423
335 1 0.750677 0.120307 0.626124
336 1 0.867589 0.121932 0.628517
337 1 1.00468 0.243521 0.624448
338 1 0.129174 0.24571 0.624629
339 1 0.256695 0.249646 0.627726
340 1 0.363262 0.253835 0.634708
341 1 0.494321 0.249099 0.62774
342 1 0.622921 0.244562 0.626691
343 1 0.74386 0.248229 0.629123
344 1 0.881047 0.246805 0.626783
345 1 1.0014 0.373637 0.621518
346 1 0.126063 0.365196 0.62226
347 1 0.250081 0.380168 0.628895
348 1 0.374837 0.375783 0.628326
349 1 0.503828 0.371756 0.626407
350 1 0.625388 0.379466 0.628715
351 1 0.744288 0.369264 0.634329
352 1 0.884608 0.364907 0.624882
353 1 0.998283 0.500256 0.623533
354 1 0.132527 0.498007 0.620907
355 1 0.257462 0.503817 0.61865
356 1 0.365383 0.506429 0.635575
357 1 0.493464 0.499454 0.629715
358 1 0.618942 0.504102 0.625347
359 1 0.744445 0.49349 0.632874
360 1 0.871751 0.503691 0.62541
361 1 1.00688 0.614122 0.632302
362 1 0.139203 0.61843 0.624891
363 1 0.248035 0.630856 0.628194
364 1 0.366736 0.635286 0.631006
365 1 0.493011 0.626428 0.625937
366 1 0.612445 0.635631 0.628872
367 1 0.7388 0.626027 0.633683
368 1 0.87531 0.626338 0.624579
369 1 1.00601 0.748084 0.61871
370 1 0.121269 0.751133 0.627405
371 1 0.23941 0.750409 0.630175
372 1 0.36824 0.752719 0.627661
373 1 0.493036 0.757311 0.618532
374 1 0.626 0.749207 0.622156
375 1 0.750675 0.752619 0.618946
376 1 0.878986 0.750626 0.61793
377 1 0.00361807 0.863553 0.621997
378 1 0.121078 0.875884 0.624701
379 1 0.242737 0.877408 0.631113
380 1 0.371198 0.88103 0.618622
381 1 0.50367 0.875072 0.617027
382 1 0.628629 0.875574 0.618636
383 1 0.753938 0.879266 0.613568
384 1 0.875768 0.872054 0.622123
385 1 0.993362 0.00840907 0.741298
386 1 0.124989 -0.00394827 0.749857
387 1 0.258453 -0.00438188 0.739726
388 1 0.375389 0.00377522 0.747675
389 1 0.499735 0.00260239 0.740279
390 1 0.626641 0.00522629 0.745617
391 1 0.756788 -0.0120426 0.753331
392 1 0.872977 0.00383685 0.748141
393 1 0.014066 0.122763 0.739297
394 1 0.127148 0.123118 0.751421
395 1 0.254664 0.120311 0.753415
396 1 0.363866 0.134449 0.749256
397 1 0.49622 0.120596 0.75936
398 1 0.621314 0.131059 0.747519
399 1 0.746068 0.123026 0.750232
400 1 0.871584 0.125664 0.748888
401 1 0.00726537 0.250903 0.73951
402 1 0.125744 0.246623 0.757586
403 1 0.243076 0.260351 0.746275
404 1 0.37533 0.251364 0.752951
405 1 0.498704 0.252405 0.751683
406 1 0.608215 0.247122 0.765584
407 1 0.750487 0.253875 0.749512
408 1 0.884421 0.24664 0.744823
409 1 0.994215 0.379237 0.750342
410 1 0.122901 0.376022 0.755909
411 1 0.247295 0.379638 0.750721
412 1 0.381943 0.37286 0.745087
413 1 0.502047 0.375493 0.746651
414 1 0.626698 0.374812 0.7515
415 1 0.756172 0.368287 0.748924
416 1 0.877128 0.375436 0.744582
417 1 -0.00469901 0.500287 0.750851
418 1 0.122618 0.496409 0.755774
419 1 0.246778 0.511016 0.747209
420 1 0.374519 0.505749 0.754617
421 1 0.50068 0.5082 0.754591
422 1 0.618711 0.507192 0.760004
423 1 0.749366 0.500572 0.73798
424 1 0.871249 0.494266 0.752207
425 1 0.994962 0.626795 0.752459
426 1 0.121204 0.625384 0.749054
427 1 0.253386 0.619855 0.757822
428 1 0.381039 0.62845 0.747876
429 1 0.499124 0.632685 0.753228
430 1 0.624522 0.62368 0.752223
431 1 0.754903 0.621852 0.742469
432 1 0.875724 0.632135 0.745029
433 1 1.004 0.745973 0.746265
434 1 0.117035 0.75116 0.754232
435 1 0.243292 0.747871 0.761144
436 1 0.374069 0.75413 0.75184
437 1 0.508216 0.750291 0.739237
438 1 0.634577 0.747514 0.741771
439 1 0.759819 0.749318 0.738579
440 1 0.879436 0.751802 0.745032
441 1 0.996667 0.876011 0.756976
442 1 0.113281 0.869639 0.765327
443 1 0.255891 0.872413 0.749557
444 1 0.38012 0.874803 0.733013
445 1 0.513515 0.873499 0.74085
446 1 0.635936 0.871497 0.738697
447 1 0.751548 0.874689 0.750961
448 1 0.872781 0.874304 0.748521
449 1 0.993937 0.00419327 0.870949
450 1 0.129834 -0.00744884 0.871083
451 1 0.244755 0.00105279 0.86685
452 1 0.377911 0.000114049 0.864705
453 1 0.503386 -0.00370419 0.867929
454 1 0.635121 -0.00602809 0.86613
455 1 0.749783 0.00201541 0.879045
456 1 0.873722 -0.00130341 0.872061
457 1 1.01274 0.121714 0.871223
458 1 0.126949 0.126065 0.870807
459 1 0.254052 0.120617 0.870658
460 1 0.376126 0.118683 0.871945
461 1 0.495125 0.114857 0.886508
462 1 0.619429 0.124592 0.87222
463 1 0.751639 0.127546 0.875371
464 1 0.872346 0.127968 0.870219
465 1 0.993415 0.24375 0.871423
466 1 0.122856 0.253642 0.874748
467 1 0.244931 0.248603 0.872361
468 1 0.379739 0.243244 0.870884
469 1 0.492888 0.253153 0.882958
470 1 0.627617 0.253666 0.870927
471 1 0.749006 0.246113 0.877321
472 1 0.877012 0.241866 0.868881
473 1 -0.00336935 0.374056 0.873942
474 1 0.120331 0.379406 0.88141
475 1 0.244298 0.368837 0.878184
476 1 0.36811 0.383102 0.877143
477 1 0.50169 0.379469 0.864569
478 1 0.630085 0.372423 0.875926
479 1 0.752868 0.375688 0.869368
480 1 0.883285 0.370129 0.874263
481 1 1.00234 0.504364 0.869498
482 1 0.12232 0.499165 0.883455
483 1 0.242168 0.503732 0.878756
484 1 0.370589 0.503077 0.872751
485 1 0.492752 0.505953 0.880957
486 1 0.624968 0.490804 0.883141
487 1 0.758092 0.492697 0.865856
488 1 0.883693 0.494581 0.86678
489 1 -0.00807715 0.621049 0.881394
490 1 0.113791 0.632867 0.871951
491 1 0.237048 0.624063 0.8871
492 1 0.375463 0.625373 0.877118
493 1 0.499029 0.624422 0.878697
494 1 0.634958 0.620116 0.869634
495 1 0.759142 0.611265 0.868015
496 1 0.878381 0.615753 0.873302
497 1 0.989914 0.752033 0.876741
498 1 0.116846 0.750926 0.883492
499 1 0.251032 0.744622 0.873334
500 1 0.376154 0.75076 0.873971
501 1 0.499427 0.748566 0.867271
502 1 0.62811 0.743528 0.870291
503 1 0.752988 0.748812 0.875716
504 1 0.876823 0.748133 0.872429
505 1 0.992384 0.874649 0.882521
506 1 0.124431 0.871797 0.87813
507 1 0.254991 0.875347 0.872993
508 1 0.379165 0.877672 0.863936
509 1 0.505118 0.872565 0.864181