ITEM: TIMESTEP
0
ITEM: NUMBER OF ATOMS
512
ITEM: BOX BOUNDS xy xz yz pp pp pp
0.0000000000000000e+00 5.5976058930000008e+01 1.3994014730000000e+01
0.0000000000000000e+00 3.2317792689999997e+01 1.3994014730000000e+01
0.0000000000000000e+00 2.2852130360000000e+01 8.0794481699999992e+00
ITEM: ATOMS id type xs ys zs
1 1 0 0 0
2 1 0.125 0 0
3 1 0.25 0 0
4 1 0.375 0 0
5 1 0.5 0 0
6 1 0.625 0 0
7 1 0.75 0 0
8 1 0.875 0 0
9 1 1.35229e-10 0.125 0
10 1 0.125 0.125 0
11 1 0.25 0.125 0
12 1 0.375 0.125 0
13 1 0.5 0.125 0
14 1 0.625 0.125 0
15 1 0.75 0.125 0
16 1 0.875 0.125 0
17 1 1 0.25 0
18 1 0.125 0.25 0
19 1 0.25 0.25 0
20 1 0.375 0.25 0
21 1 0.5 0.25 0
22 1 0.625 0.25 0
23 1 0.75 0.25 0
24 1 0.875 0.25 0
25 1 1.05727e-10 0.375 0
26 1 0.125 0.375 0
27 1 0.25 0.375 0
28 1 0.375 0.375 0
29 1 0.5 0.375 0
30 1 0.625 0.375 0
31 1 0.75 0.375 0
32 1 0.875 0.375 0
33 1 9.20082e-11 0.5 0
34 1 0.125 0.5 0
35 1 0.25 0.5 0
36 1 0.375 0.5 0
37 1 0.5 0.5 0
38 1 0.625 0.5 0
39 1 0.75 0.5 0
40 1 0.875 0.5 0
41 1 1 0.625 0
42 1 0.125 0.625 0
43 1 0.25 0.625 0
44 1 0.375 0.625 0
45 1 0.5 0.625 0
46 1 0.625 0.625 0
47 1 0.75 0.625 0
48 1 0.875 0.625 0
49 1 1 0.75 0
50 1 0.125 0.75 0
51 1 0.25 0.75 0
52 1 0.375 0.75 0
53 1 0.5 0.75 0
54 1 0.625 0.75 0
55 1 0.75 0.75 0
56 1 0.875 0.75 0
57 1 1 0.875 0
58 1 0.125 0.875 0
59 1 0.25 0.875 0
60 1 0.375 0.875 0
61 1 0.5 0.875 0
62 1 0.625 0.875 0
63 1 0.75 0.875 0
64 1 0.875 0.875 0
65 1 4.21023e-11 7.59861e-10 0.125
66 1 0.125 7.59861e-10 0.125
67 1 0.25 7.59861e-10 0.125
68 1 0.375 7.59861e-10 0.125
69 1 0.5 7.59861e-10 0.125
70 1 0.625 7.59861e-10 0.125
71 1 0.75 7.59861e-10 0.125
72 1 0.875 7.59861e-10 0.125
73 1 1 0.125 0.125
74 1 0.125 0.125 0.125
75 1 0.25 0.125 0.125
76 1 0.375 0.125 0.125
77 1 0.5 0.125 0.125
78 1 0.625 0.125 0.125
79 1 0.75 0.125 0.125
80 1 0.875 0.125 0.125
81 1 1.2601e-11 0.25 0.125
82 1 0.125 0.25 0.125
83 1 0.25 0.25 0.125
84 1 0.375 0.25 0.125
85 1 0.5 0.25 0.125
86 1 0.625 0.25 0.125
87 1 0.75 0.25 0.125
88 1 0.875 0.25 0.125
89 1 1 0.375 0.125
90 1 0.125 0.375 0.125
91 1 0.25 0.375 0.125
92 1 0.375 0.375 0.125
93 1 0.5 0.375 0.125
94 1 0.625 0.375 0.125
95 1 0.75 0.375 0.125
96 1 0.875 0.375 0.125
97 1 1 0.5 0.125
98 1 0.125 0.5 0.125
99 1 0.25 0.5 0.125
100 1 0.375 0.5 0.125
101 1 0.5 0.5 0.125
102 1 0.625 0.5 0.125
103 1 0.75 0.5 0.125
104 1 0.875 0.5 0.125
105 1 1 0.625 0.125
106 1 0.125 0.625 0.125
107 1 0.25 0.625 0.125
108 1 0.375 0.625 0.125
109 1 0.5 0.625 0.125
110 1 0.625 0.625 0.125
111 1 0.75 0.625 0.125
112 1 0.875 0.625 0.125
113 1 1.04609e-10 0.75 0.125
114 1 0.125 0.75 0.125
115 1 0.25 0.75 0.125
116 1 0.375 0.75 0.125
117 1 0.5 0.75 0.125
118 1 0.625 0.75 0.125
119 1 0.75 0.75 0.125
120 1 0.875 0.75 0.125
121 1 2.97175e-10 0.875 0.125
122 1 0.125 0.875 0.125
123 1 0.25 0.875 0.125
124 1 0.375 0.875 0.125
125 1 0.5 0.875 0.125
126 1 0.625 0.875 0.125
127 1 0.75 0.875 0.125
128 1 0.875 0.875 0.125
129 1 1 1 0.25
130 1 0.125 1 0.25
131 1 0.25 1 0.25
132 1 0.375 1 0.25
133 1 0.5 1 0.25
134 1 0.625 1 0.25
135 1 0.75 1 0.25
136 1 0.875 1 0.25
137 1 1 0.125 0.25
138 1 0.125 0.125 0.25
139 1 0.25 0.125 0.25
140 1 0.375 0.125 0.25
141 1 0.5 0.125 0.25
142 1 0.625 0.125 0.25
143 1 0.75 0.125 0.25
144 1 0.875 0.125 0.25
145 1 1 0.25 0.25
146 1 0.125 0.25 0.25
147 1 0.25 0.25 0.25
148 1 0.375 0.25 0.25
149 1 0.5 0.25 0.25
150 1 0.625 0.25 0.25
151 1 0.75 0.25 0.25
152 1 0.875 0.25 0.25
153 1 1 0.375 0.25
154 1 0.125 0.375 0.25
155 1 0.25 0.375 0.25
156 1 0.375 0.375 0.25
157 1 0.5 0.375 0.25
158 1 0.625 0.375 0.25
159 1 0.75 0.375 0.25
160 1 0.875 0.375 0.25
161 1 1 0.5 0.25
162 1 0.125 0.5 0.25
163 1 0.25 0.5 0.25
164 1 0.375 0.5 0.25
165 1 0.5 0.5 0.25
166 1 0.625 0.5 0.25
167 1 0.75 0.5 0.25
168 1 0.875 0.5 0.25
169 1 1 0.625 0.25
170 1 0.125 0.625 0.25
171 1 0.25 0.625 0.25
172 1 0.375 0.625 0.25
173 1 0.5 0.625 0.25
174 1 0.625 0.625 0.25
175 1 0.75 0.625 0.25
176 1 0.875 0.625 0.25
177 1 1 0.75 0.25
178 1 0.125 0.75 0.25
179 1 0.25 0.75 0.25
180 1 0.375 0.75 0.25
181 1 0.5 0.75 0.25
182 1 0.625 0.75 0.25
183 1 0.75 0.75 0.25
184 1 0.875 0.75 0.25
185 1 1 0.875 0.25
186 1 0.125 0.875 0.25
187 1 0.25 0.875 0.25
188 1 0.375 0.875 0.25
189 1 0.5 0.875 0.25
190 1 0.625 0.875 0.25
191 1 0.75 0.875 0.25
192 1 0.875 0.875 0.25
193 1 1 3.33448e-10 0.375
194 1 0.125 3.33448e-10 0.375
195 1 0.25 3.33448e-10 0.375
196 1 0.375 3.33448e-10 0.375
197 1 0.5 3.33448e-10 0.375
198 1 0.625 3.33448e-10 0.375
199 1 0.75 3.33448e-10 0.375
200 1 0.875 3.33448e-10 0.375
201 1 1 0.125 0.375
202 1 0.125 0.125 0.375
203 1 0.25 0.125 0.375
204 1 0.375 0.125 0.375
205 1 0.5 0.125 0.375
206 1 0.625 0.125 0.375
207 1 0.75 0.125 0.375
208 1 0.875 0.125 0.375
209 1 1 0.25 0.375
210 1 0.125 0.25 0.375
211 1 0.25 0.25 0.375
212 1 0.375 0.25 0.375
213 1 0.5 0.25 0.375
214 1 0.625 0.25 0.375
215 1 0.75 0.25 0.375
216 1 0.875 0.25 0.375
217 1 1 0.375 0.375
218 1 0.125 0.375 0.375
219 1 0.25 0.375 0.375
220 1 0.375 0.375 0.375
221 1 0.5 0.375 0.375
222 1 0.625 0.375 0.375
223 1 0.75 0.375 0.375
224 1 0.875 0.375 0.375
225 1 1 0.5 0.375
226 1 0.125 0.5 0.375
227 1 0.25 0.5 0.375
228 1 0.375 0.5 0.375
229 1 0.5 0.5 0.375
230 1 0.625 0.5 0.375
231 1 0.75 0.5 0.375
232 1 0.875 0.5 0.375
233 1 2.54753e-11 0.625 0.375
234 1 0.125 0.625 0.375
235 1 0.25 0.625 0.375
236 1 0.375 0.625 0.375
237 1 0.5 0.625 0.375
238 1 0.625 0.625 0.375
239 1 0.75 0.625 0.375
240 1 0.875 0.625 0.375
241 1 1 0.75 0.375
242 1 0.125 0.75 0.375
243 1 0.25 0.75 0.375
244 1 0.375 0.75 0.375
245 1 0.5 0.75 0.375
246 1 0.625 0.75 0.375
247 1 0.75 0.75 0.375
248 1 0.875 0.75 0.375
249 1 1 0.875 0.375
250 1 0.125 0.875 0.375
251 1 0.25 0.875 0.375
252 1 0.375 0.875 0.375
253 1 0.5 0.875 0.375
254 1 0.625 0.875 0.375
255 1 0.75 0.875 0.375
256 1 0.875 0.875 0.375
257 1 4.66256e-11 2.64044e-10 0.5
258 1 0.125 2.64044e-10 0.5
259 1 0.25 2.64044e-10 0.5
260 1 0.375 2.64044e-10 0.5
261 1 0.5 2.64044e-10 0.5
262 1 0.625 2.64044e-10 0.5
263 1 0.75 2.64044e-10 0.5
264 1 0.875 2.64044e-10 0.5
265 1 1 0.125 0.5
266 1 0.125 0.125 0.5
267 1 0.25 0.125 0.5
268 1 0.375 0.125 0.5
269 1 0.5 0.125 0.5
270 1 0.625 0.125 0.5
271 1 0.75 0.125 0.5
272 1 0.875 0.125 0.5
273 1 1 0.25 0.5
274 1 0.125 0.25 0.5
275 1 0.25 0.25 0.5
276 1 0.375 0.25 0.5
277 1 0.5 0.25 0.5
278 1 0.625 0.25 0.5
279 1 0.75 0.25 0.5
280 1 0.875 0.25 0.5
281 1 1.52353e-10 0.375 0.5
282 1 0.125 0.375 0.5
283 1 0.25 0.375 0.5
284 1 0.375 0.375 0.5
285 1 0.5 0.375 0.5
286 1 0.625 0.375 0.5
287 1 0.75 0.375 0.5
288 1 0.875 0.375 0.5
289 1 1.38634e-10 0.5 0.5
290 1 0.125 0.5 0.5
291 1 0.25 0.5 0.5
292 1 0.375 0.5 0.5
293 1 0.5 0.5 0.5
294 1 0.625 0.5 0.5
295 1 0.75 0.5 0.5
296 1 0.875 0.5 0.5
297 1 1 0.625 0.5
298 1 0.125 0.625 0.5
299 1 0.25 0.625 0.5
300 1 0.375 0.625 0.5
301 1 0.5 0.625 0.5
302 1 0.625 0.625 0.5
303 1 0.75 0.625 0.5
304 1 0.875 0.625 0.5
305 1 1.09132e-10 0.75 0.5
306 1 0.125 0.75 0.5
307 1 0.25 0.75 0.5
308 1 0.375 0.75 0.5
309 1 0.5 0.75 0.5
310 1 0.625 0.75 0.5
311 1 0.75 0.75 0.5
312 1 0.875 0.75 0.5
313 1 3.80764e-11 0.875 0.5
314 1 0.125 0.875 0.5
315 1 0.25 0.875 0.5
316 1 0.375 0.875 0.5
317 1 0.5 0.875 0.5
318 1 0.625 0.875 0.5
319 1 0.75 0.875 0.5
320 1 0.875 0.875 0.5
321 1 1 7.32175e-10 0.625
322 1 0.125 7.32175e-10 0.625
323 1 0.25 7.32175e-10 0.625
324 1 0.375 7.32175e-10 0.625
325 1 0.5 7.32175e-10 0.625
326 1 0.625 7.32175e-10 0.625
327 1 0.75 7.32175e-10 0.625
328 1 0.875 7.32175e-10 0.625
329 1 1 0.125 0.625
330 1 0.125 0.125 0.625
331 1 0.25 0.125 0.625
332 1 0.375 0.125 0.625
333 1 0.5 0.125 0.625
334 1 0.625 0.125 0.625
335 1 0.75 0.125 0.625
336 1 0.875 0.125 0.625
337 1 1 0.25 0.625
338 1 0.125 0.25 0.625
339 1 0.25 0.25 0.625
340 1 0.375 0.25 0.625
341 1 0.5 0.25 0.625
342 1 0.625 0.25 0.625
343 1 0.75 0.25 0.625
344 1 0.875 0.25 0.625
345 1 1 0.375 0.625
346 1 0.125 0.375 0.625
347 1 0.25 0.375 0.625
348 1 0.375 0.375 0.625
349 1 0.5 0.375 0.625
350 1 0.625 0.375 0.625
351 1 0.75 0.375 0.625
352 1 0.875 0.375 0.625
353 1 1 0.5 0.625
354 1 0.125 0.5 0.625
355 1 0.25 0.5 0.625
356 1 0.375 0.5 0.625
357 1 0.5 0.5 0.625
358 1 0.625 0.5 0.625
359 1 0.75 0.5 0.625
360 1 0.875 0.5 0.625
361 1 1 0.625 0.625
362 1 0.125 0.625 0.625
363 1 0.25 0.625 0.625
364 1 0.375 0.625 0.625
365 1 0.5 0.625 0.625
366 1 0.625 0.625 0.625
367 1 0.75 0.625 0.625
368 1 0.875 0.625 0.625
369 1 6.57887e-11 0.75 0.625
370 1 0.125 0.75 0.625
371 1 0.25 0.75 0.625
372 1 0.375 0.75 0.625
373 1 0.5 0.75 0.625
374 1 0.625 0.75 0.625
375 1 0.75 0.75 0.625
376 1 0.875 0.75 0.625
377 1 1 0.875 0.625
378 1 0.125 0.875 0.625
379 1 0.25 0.875 0.625
380 1 0.375 0.875 0.625
381 1 0.5 0.875 0.625
382 1 0.625 0.875 0.625
383 1 0.75 0.875 0.625
384 1 0.875 0.875 0.625
385 1 1 2.50201e-10 0.75
386 1 0.125 2.50201e-10 0.75
387 1 0.25 2.50201e-10 0.75
388 1 0.375 2.50201e-10 0.75
389 1 0.5 2.50201e-10 0.75
390 1 0.625 2.50201e-10 0.75
391 1 0.75 2.50201e-10 0.75
392 1 0.875 2.50201e-10 0.75
393 1 8.69387e-11 0.125 0.75
394 1 0.125 0.125 0.75
395 1 0.25 0.125 0.75
396 1 0.375 0.125 0.75
397 1 0.5 0.125 0.75
398 1 0.625 0.125 0.75
399 1 0.75 0.125 0.75
400 1 0.875 0.125 0.75
401 1 7.32195e-11 0.25 0.75
402 1 0.125 0.25 0.75
403 1 0.25 0.25 0.75
404 1 0.375 0.25 0.75
405 1 0.5 0.25 0.75
406 1 0.625 0.25 0.75
407 1 0.75 0.25 0.75
408 1 0.875 0.25 0.75
409 1 1 0.375 0.75
410 1 0.125 0.375 0.75
411 1 0.25 0.375 0.75
412 1 0.375 0.375 0.75
413 1 0.5 0.375 0.75
414 1 0.625 0.375 0.75
415 1 0.75 0.375 0.75
416 1 0.875 0.375 0.75
417 1 1 0.5 0.75
418 1 0.125 0.5 0.75
419 1 0.25 0.5 0.75
420 1 0.375 0.5 0.75
421 1 0.5 0.5 0.75
422 1 0.625 0.5 0.75
423 1 0.75 0.5 0.75
424 1 0.875 0.5 0.75
425 1 1 0.625 0.75
426 1 0.125 0.625 0.75
427 1 0.25 0.625 0.75
428 1 0.375 0.625 0.75
429 1 0.5 0.625 0.75
430 1 0.625 0.625 0.75
431 1 0.75 0.625 0.75
432 1 0.875 0.625 0.75
433 1 1 0.75 0.75
434 1 0.125 0.75 0.75
435 1 0.25 0.75 0.75
436 1 0.375 0.75 0.75
437 1 0.5 0.75 0.75
438 1 0.625 0.75 0.75
439 1 0.75 0.75 0.75
440 1 0.875 0.75 0.75
441 1 1 0.875 0.75
442 1 0.125 0.875 0.75
443 1 0.25 0.875 0.75
444 1 0.375 0.875 0.75
445 1 0.5 0.875 0.75
446 1 0.625 0.875 0.75
447 1 0.75 0.875 0.75
448 1 0.875 0.875 0.75
449 1 1 4.51627e-10 0.875
450 1 0.125 4.51627e-10 0.875
451 1 0.25 4.51627e-10 0.875
452 1 0.375 4.51627e-10 0.875
453 1 0.5 4.51627e-10 0.875
454 1 0.625 4.51627e-10 0.875
455 1 0.75 4.51627e-10 0.875
456 1 0.875 4.51627e-10 0.875
457 1 1 0.125 0.875
458 1 0.125 0.125 0.875
459 1 0.25 0.125 0.875
460 1 0.375 0.125 0.875
461 1 0.5 0.125 0.875
462 1 0.625 0.125 0.875
463 1 0.75 0.125 0.875
464 1 0.875 0.125 0.875
465 1 1 0.25 0.875
466 1 0.125 0.25 0.875
467 1 0.25 0.25 0.875
468 1 0.375 0.25 0.875
469 1 0.5 0.25 0.875
470 1 0.625 0.25 0.875
471 1 0.75 0.25 0.875
472 1 0.875 0.25 0.875
473 1 1 0.375 0.875
474 1 0.125 0.375 0.875
475 1 0.25 0.375 0.875
476 1 0.375 0.375 0.875
477 1 0.5 0.375 0.875
478 1 0.625 0.375 0.875
479 1 0.75 0.375 0.875
480 1 0.875 0.375 0.875
481 1 1 0.5 0.875
482 1 0.125 0.5 0.875
483 1 0.25 0.5 0.875
484 1 0.375 0.5 0.875
485 1 0.5 0.5 0.875
486 1 0.625 0.5 0.875
487 1 0.75 0.5 0.875
488 1 0.875 0.5 0.875
489 1 1 0.625 0.875
490 1 0.125 0.625 0.875
491 1 0.25 0.625 0.875
492 1 0.375 0.625 0.875
493 1 0.5 0.625 0.875
494 1 0.625 0.625 0.875
495 1 0.75 0.625 0.875
496 1 0.875 0.625 0.875
497 1 1 0.75 0.875
498 1 0.125 0.75 0.875
499 1 0.25 0.75 0.875
500 1 0.375 0.75 0.875
501 1 0.5 0.75 0.875
502 1 0.625 0.75 0.875
503 1 0.75 0.75 0.875
504 1 0.875 0.75 0.875
505 1 1 0.875 0.875
506 1 0.125 0.875 0.875
507 1 0.25 0.875 0.875
508 1 0.375 0.875 0.875
509 1 0.5 0.875 0.875
510 1 0.625 0.875 0.875
511 1 0.75 0.875 0.875
512 1 0.875 0.875 0.875
ITEM: TIMESTEP
50000
ITEM: NUMBER OF ATOMS
512
ITEM: BOX BOUNDS xy xz yz pp pp pp
-1.3296298070340384e-01 5.6374947872014552e+01 1.4126977710655678e+01
-1.1514931903834480e-01 3.2509708221699086e+01 1.4126977710655678e+01
-1.0856381909110802e-01 2.2960694179090257e+01 8.1562143826607230e+00
ITEM: ATOMS id type xs ys zs
1 1 0.00153184 -0.00186892 1.00183
2 1 0.131778 1.0006 0.991616
3 1 0.254003 0.990619 1.0022
4 1 0.37714 1.00346 -0.0118863
5 1 0.502371 0.998489 0.996775
6 1 0.621149 -0.00126952 1.00423
7 1 0.731484 1.01735 1.00565
8 1 0.865269 0.00808038 0.996773
9 1 0.0110121 0.116787 0.000158483
10 1 0.131881 0.137042 0.999843
11 1 0.253817 0.118574 0.00640395
12 1 0.361989 0.134689 0.99799
13 1 0.496245 0.122023 1.0003
14 1 0.624978 0.12948 -0.00429229
15 1 0.734753 0.13371 1.01637
16 1 0.883461 0.128403 0.00242313
17 1 -0.00424627 0.251328 0.0144015
18 1 0.12222 0.246278 0.0166418
19 1 0.250529 0.256339 -0.000114461
20 1 0.374654 0.250656 0.0016819
21 1 0.493315 0.257143 1.00054
22 1 0.624513 0.258788 -0.00655783
23 1 0.74751 0.256327 0.00855632
24 1 0.882774 0.242369 0.0125946
25 1 -0.00282547 0.37783 0.00194002
26 1 0.126437 0.376895 0.0011507
27 1 0.253639 0.370158 0.00606082
28 1 0.368426 0.373253 0.00472955
29 1 0.497071 0.374482 0.0136043
30 1 0.627552 0.37955 -0.00651714
31 1 0.749794 0.372508 1.01001
32 1 0.875836 0.375082 0.00146945
33 1 -0.0113213 0.505006 0.00897637
34 1 0.130132 0.50008 -0.0104125
35 1 0.258809 0.496642 0.998181
36 1 0.37249 0.500544 0.00104564
37 1 0.497495 0.501736 -0.00950636
38 1 0.625561 0.502142 0.988431
39 1 0.740658 0.495575 1.00459
40 1 0.867625 0.502031 0.00680342
41 1 0.00444813 0.632683 0.995815
42 1 0.122356 0.633384 -0.00758846
43 1 0.260477 0.615513 -0.00513748
44 1 0.371549 0.622903 -0.00156221
45 1 0.507378 0.619241 1.00021
46 1 0.620169 0.638681 0.994915
47 1 0.743988 0.631157 1.00749
48 1 0.876554 0.625823 1.00688
49 1 1.00413 0.755563 -0.0138073
50 1 0.11943 0.753482 0.996094
51 1 0.247887 0.73694 1.00573
52 1 0.378592 0.733128 0.00534822
53 1 0.502675 0.743365 -0.00667969
54 1 0.629425 0.75187 -0.00687098
55 1 0.753137 0.75053 0.992596
56 1 0.881859 0.752381 -0.00711981
57 1 -0.00486061 0.87751 0.995506
58 1 0.126878 0.868195 1.00044
59 1 0.250423 0.872692 1.00204
60 1 0.374565 0.865666 1.00691
61 1 0.49706 0.867544 -0.0013243
62 1 0.621898 0.876157 0.99365
63 1 0.742724 0.877482 0.995748
64 1 0.871826 0.881579 0.995719
65 1 0.00647715 -0.00432404 0.118693
66 1 0.139442 -0.0018017 0.116074
67 1 0.256387 0.997714 0.115179
68 1 0.383004 0.990873 0.122155
69 1 0.495791 0.996427 0.124147
70 1 0.617356 0.000797933 0.131759
71 1 0.754929 0.994864 0.121384
72 1 0.877011 -8.86509e-05 0.115927
73 1 0.0117463 0.128406 0.141268
74 1 0.133245 0.122595 0.138137
75 1 0.255229 0.125142 0.127378
76 1 0.382243 0.126418 0.121114
77 1 0.495113 0.12586 0.120597
78 1 0.622268 0.127129 0.133604
79 1 0.754899 0.117829 0.12535
80 1 0.878923 0.123221 0.13306
81 1 1.00144 0.254883 0.132783
82 1 0.136246 0.246071 0.12839
83 1 0.250353 0.244148 0.128023
84 1 0.376268 0.247609 0.128909
85 1 0.501413 0.238628 0.12651
86 1 0.62927 0.251451 0.121615
87 1 0.755207 0.239376 0.13668
88 1 0.876181 0.260805 0.127754
89 1 1.00245 0.386203 0.127331
90 1 0.127188 0.380112 0.12244
91 1 0.250797 0.368525 0.136409
92 1 0.373938 0.378935 0.128956
93 1 0.493228 0.376117 0.131212
94 1 0.626479 0.371142 0.134594
95 1 0.751099 0.37843 0.128298
96 1 0.873172 0.379772 0.133171
97 1 0.00442353 0.505441 0.126549
98 1 0.138337 0.500723 0.111582
99 1 0.255246 0.496426 0.122424
100 1 0.375984 0.494269 0.137088
101 1 0.499196 0.495561 0.139476
102 1 0.620299 0.499005 0.128008
103 1 0.744281 0.503909 0.136005
104 1 0.870355 0.505753 0.125896
105 1 1.01099 0.619502 0.126288
106 1 0.134739 0.632084 0.113336
107 1 0.245454 0.624432 0.130596
108 1 0.368879 0.621103 0.127855
109 1 0.496587 0.623925 0.123079
110 1 0.62889 0.630956 0.116139
111 1 0.750604 0.631225 0.123526
112 1 0.879848 0.631666 0.122158
113 1 1.01157 0.746804 0.116628
114 1 0.120272 0.759021 0.129437
115 1 0.252045 0.746227 0.122616
116 1 0.372323 0.732142 0.135871
117 1 0.504028 0.739459 0.119795
118 1 0.632968 0.759256 0.114864
119 1 0.757088 0.7508 0.117573
120 1 0.875738 0.756302 0.124688
121 1 0.000383172 0.873826 0.132112
122 1 0.128613 0.867288 0.130687
123 1 0.258798 0.869205 0.120783
124 1 0.375051 0.869089 0.125797
125 1 0.497068 0.861915 0.123192
126 1 0.626964 0.882156 0.112346
127 1 0.745858 0.872225 0.125466
128 1 0.885162 0.879241 0.1138
129 1 -0.00295954 1.00509 0.243984
130 1 0.129556 0.991368 0.246479
131 1 0.249156 1.0008 0.249361
132 1 0.371852 0.990962 0.254816
133 1 0.492038 -0.0045925 0.247555
134 1 0.625751 -0.010927 0.250544
135 1 0.758244 -0.00923392 0.242982
136 1 0.881846 -0.00523879 0.242793
137 1 0.00516432 0.127664 0.263588
138 1 0.129755 0.126134 0.258864
139 1 0.253522 0.119334 0.247131
140 1 0.37929 0.115459 0.254757
141 1 0.501235 0.120577 0.248429
142 1 0.637336 0.122788 0.246786
143 1 0.757567 0.119105 0.251601
144 1 0.889859 0.12754 0.25302
145 1 1.00023 0.255872 0.258041
146 1 0.12972 0.258074 0.240294
147 1 0.25006 0.240471 0.251603
148 1 0.371628 0.252222 0.248634
149 1 0.506216 0.239346 0.248857
150 1 0.624119 0.246517 0.24503
151 1 0.74643 0.265696 0.251687
152 1 0.885685 0.251661 0.259241
153 1 1.00372 0.375449 0.256888
154 1 0.132009 0.371247 0.25102
155 1 0.253193 0.371626 0.255712
156 1 0.37918 0.365251 0.254083
157 1 0.504512 0.365689 0.263265
158 1 0.62359 0.368505 0.257572
159 1 0.742187 0.37828 0.25637
160 1 0.87979 0.378979 0.245728
161 1 -0.00977648 0.502601 0.251516
162 1 0.131717 0.495413 0.249705
163 1 0.252881 0.501423 0.240054
164 1 0.365533 0.500205 0.257419
165 1 0.49247 0.496188 0.253547
166 1 0.618343 0.487763 0.257922
167 1 0.743306 0.509686 0.250952
168 1 0.869299 0.503785 0.253904
169 1 0.00504266 0.623847 0.242053
170 1 0.126946 0.621263 0.254752
171 1 0.23655 0.617419 0.257239
172 1 0.369599 0.616491 0.25413
173 1 0.489755 0.612207 0.260771
174 1 0.623239 0.61797 0.25689
175 1 0.75532 0.628035 0.247159
176 1 0.874474 0.626708 0.256423
177 1 0.999823 0.756645 0.244712
178 1 0.119089 0.756155 0.25585
179 1 0.250247 0.736456 0.257247
180 1 0.377855 0.743347 0.250094
181 1 0.498754 0.745505 0.240946
182 1 0.627085 0.749086 0.241902
183 1 0.749037 0.749518 0.244936
184 1 0.884025 0.750212 0.249683
185 1 0.999741 0.871488 0.255521
186 1 0.1285 0.873276 0.249295
187 1 0.253002 0.866492 0.24136
188 1 0.376288 0.865447 0.250561
189 1 0.500198 0.865989 0.247395
190 1 0.626363 0.878099 0.238854
191 1 0.758614 0.868647 0.235985
192 1 0.869055 0.878002 0.24439
193 1 0.00820381 0.00144323 0.367837
194 1 0.124538 -0.00298278 0.365385
195 1 0.252239 -0.0138992 0.376121
196 1 0.369908 0.999134 0.371588
197 1 0.492294 1.00643 0.371691
198 1 0.630533 1.0029 0.363464
199 1 0.771672 -0.00812375 0.367953
200 1 0.870301 1.01567 0.369233
201 1 0.00304593 0.125127 0.377155
202 1 0.124595 0.141437 0.367442
203 1 0.245624 0.118101 0.374412
204 1 0.37779 0.117863 0.373758
205 1 0.502618 0.111083 0.374579
206 1 0.627465 0.119395 0.369374
207 1 0.746643 0.132124 0.372796
208 1 0.87821 0.129123 0.37207
209 1 0.00396593 0.249548 0.380763
210 1 0.128423 0.258688 0.368748
211 1 0.25433 0.248063 0.376119
212 1 0.373882 0.236336 0.380437
213 1 0.498116 0.243857 0.376082
214 1 0.622986 0.243383 0.371391
215 1 0.751702 0.257717 0.369265
216 1 0.87559 0.248161 0.38878
217 1 1.01009 0.381241 0.378045
218 1 0.134424 0.367558 0.380249
219 1 0.256808 0.368612 0.382652
220 1 0.379164 0.357928 0.386014
221 1 0.498652 0.374749 0.373103
222 1 0.624046 0.368259 0.384645
223 1 0.761501 0.376323 0.370855
224 1 0.879841 0.374201 0.380097
225 1 1.01138 0.495598 0.374646
226 1 0.126874 0.49768 0.372918
227 1 0.254401 0.492274 0.37961
228 1 0.377416 0.48856 0.382241
229 1 0.490503 0.495067 0.38035
230 1 0.627196 0.494414 0.376097
231 1 0.748701 0.490981 0.381469
232 1 0.874774 0.492299 0.382287
233 1 1.00331 0.632678 0.368968
234 1 0.123219 0.622444 0.377264
235 1 0.24212 0.626778 0.390438
236 1 0.369142 0.625104 0.375063
237 1 0.50482 0.62387 0.367987
238 1 0.635912 0.618037 0.381539
239 1 0.756622 0.618314 0.378044
240 1 0.877284 0.621949 0.373862
241 1 0.998808 0.748855 0.37543
242 1 0.12522 0.749496 0.374804
243 1 0.250565 0.753731 0.372856
244 1 0.38088 0.744872 0.3712
245 1 0.504818 0.745038 0.37322
246 1 0.628212 0.743725 0.368307
247 1 0.753738 0.745069 0.368684
248 1 0.881041 0.75117 0.371059
249 1 -0.00314527 0.883706 0.371878
250 1 0.129131 0.875576 0.365092
251 1 0.259409 0.865165 0.375924
252 1 0.376166 0.86143 0.378595
253 1 0.50431 0.87135 0.364635
254 1 0.615169 0.871961 0.38187
255 1 0.746633 0.875121 0.361472
256 1 0.87791 0.864164 0.384569
257 1 0.996728 0.00215337 0.504017
258 1 0.117016 -0.000445927 0.494732
259 1 0.244131 0.00264231 0.50103
260 1 0.379323 0.995241 0.49644
261 1 0.493358 1.00183 0.506289
262 1 0.633858 -0.00242124 0.490698
263 1 0.75119 0.991242 0.508713
264 1 0.875562 -0.0129737 0.505556
265 1 1.00404 0.127495 0.503215
266 1 0.122538 0.125366 0.494113
267 1 0.245055 0.125516 0.501189
268 1 0.365813 0.128172 0.501549
269 1 0.496415 0.123914 0.500593
270 1 0.623219 0.127346 0.498249
271 1 0.751696 0.130854 0.498654
272 1 0.871091 0.114918 0.507058
273 1 -0.00538502 0.253042 0.500239
274 1 0.118075 0.249068 0.496284
275 1 0.245625 0.255511 0.500637
276 1 0.370814 0.252851 0.501372
277 1 0.505206 0.252032 0.493438
278 1 0.632115 0.244621 0.495332
279 1 0.745405 0.261869 0.499213
280 1 0.875905 0.246969 0.508083
281 1 1.00653 0.369734 0.50789
282 1 0.12171 0.375753 0.503015
283 1 0.250768 0.375146 0.507612
284 1 0.377605 0.367431 0.505992
285 1 0.499154 0.37066 0.506282
286 1 0.623364 0.3771 0.499032
287 1 0.744956 0.377184 0.502342
288 1 0.867286 0.375566 0.50409
289 1 -0.0113295 0.520514 0.497095
290 1 0.132829 0.498305 0.499518
291 1 0.245255 0.504243 0.50268
292 1 0.372783 0.490225 0.504861
293 1 0.500819 0.502448 0.495319
294 1 0.632136 0.495405 0.50252
295 1 0.750018 0.499488 0.504848
296 1 0.873583 0.492497 0.507824
297 1 0.00417649 0.628033 0.497707
298 1 0.127897 0.627426 0.503649
299 1 0.246392 0.627101 0.50552
300 1 0.374362 0.622002 0.497233
301 1 0.507888 0.624549 0.490656
302 1 0.621437 0.619996 0.507283
303 1 0.746684 0.618267 0.509815
304 1 0.866224 0.640411 0.486349
305 1 1.00241 0.75197 0.49172
306 1 0.125068 0.758791 0.491291
307 1 0.233727 0.756134 0.506568
308 1 0.379742 0.744055 0.490008
309 1 0.495429 0.752636 0.490085
310 1 0.624204 0.74724 0.483957
311 1 0.748432 0.761413 0.485614
312 1 0.869179 0.749758 0.504937
313 1 1.00384 0.87278 0.50368
314 1 0.118075 0.871867 0.512477
315 1 0.24711 0.872832 0.500208
316 1 0.37349 0.883841 0.485957
317 1 0.492079 0.872998 0.492378
318 1 0.612239 0.88831 0.491203
319 1 0.748031 0.87574 0.492658
320 1 0.88727 0.869444 0.493503
321 1 0.99669 -0.000410865 0.631774
322 1 0.11654 1.01942 0.625096
323 1 0.253732 -0.000230497 0.619327
324 1 0.377499 -0.00568474 0.619022
325 1 0.499701 0.997522 0.625224
326 1 0.621167 0.00525421 0.624119
327 1 0.752094 1.0064 0.610698
328 1 0.86522 1.0043 0.641614
329 1 -0.000538643 0.124735 0.631231
330 1 0.125985 0.123442 0.627178
331 1 0.25408 0.132857 0.617589
332 1 0.380135 0.114186 0.630852
333 1 0.493057 0.132105 0.619672
334 1 0.627469 0.126381 0.630401
335 1 0.751621 0.118814 0.620708
336 1 0.885795 0.121439 0.627084
337 1 1.00313 0.244662 0.626118
338 1 0.12268 0.253729 0.627492
339 1 0.246853 0.249831 0.635576
340 1 0.363504 0.252336 0.638167
341 1 0.494774 0.253078 0.630529
342 1 0.631627 0.248111 0.625235
343 1 0.759879 0.238876 0.625882
344 1 0.874143 0.259395 0.621357
345 1 0.989564 0.382005 0.629866
346 1 0.128047 0.372298 0.624699
347 1 0.239245 0.382906 0.640506
348 1 0.36404 0.381685 0.637603
349 1 0.501562 0.376607 0.62272
350 1 0.625818 0.368418 0.627219
351 1 0.746336 0.368806 0.636786
352 1 0.879172 0.363167 0.634989
353 1 0.00364324 0.501192 0.625263
354 1 0.129888 0.489149 0.630844
355 1 0.248088 0.506981 0.622518
356 1 0.378839 0.500499 0.619541
357 1 0.493673 0.491112 0.636909
358 1 0.615552 0.491561 0.637287
359 1 0.732384 0.496997 0.634806
360 1 0.888194 0.510153 0.614806
361 1 -0.0185281 0.622613 0.636951
362 1 0.131817 0.633247 0.621295
363 1 0.251265 0.625509 0.630873
364 1 0.374203 0.628501 0.616786
365 1 0.501033 0.624817 0.617008
366 1 0.625818 0.626336 0.62468
367 1 0.747661 0.626956 0.624263
368 1 0.862532 0.63415 0.632872
369 1 0.00373984 0.744061 0.614965
370 1 0.117086 0.75097 0.630583
371 1 0.251098 0.75508 0.61701
372 1 0.374166 0.754887 0.613737
373 1 0.501587 0.756604 0.611795
374 1 0.627695 0.752042 0.607999
375 1 0.734801 0.764451 0.625848
376 1 0.877403 0.755859 0.615101
377 1 0.998524 0.871946 0.63107
378 1 0.117243 0.889396 0.620661
379 1 0.255836 0.879989 0.620787
380 1 0.376783 0.8648 0.626177
381 1 0.497686 0.8646 0.625518
382 1 0.614628 0.880222 0.621409
383 1 0.75146 0.871088 0.61191
384 1 0.870745 0.882719 0.618328
385 1 1.00649 0.00135987 0.742464
386 1 0.124995 2.58425e-05 0.749009
387 1 0.256022 1.00795 0.740327
388 1 0.375108 0.997275 0.752617
389 1 0.497989 0.00802169 0.744586
390 1 0.615321 1.00734 0.745994
391 1 0.738309 1.00995 0.743377
392 1 0.883073 1.00383 0.750679
393 1 -0.0158151 0.130685 0.756278
394 1 0.12976 0.126683 0.740833
395 1 0.251271 0.123519 0.74712
396 1 0.366153 0.123735 0.759783
397 1 0.510734 0.128282 0.738503
398 1 0.629456 0.123614 0.752406
399 1 0.76319 0.121389 0.748027
400 1 0.877871 0.12322 0.752041
401 1 1.00146 0.247304 0.746891
402 1 0.124315 0.24318 0.75156
403 1 0.237706 0.248078 0.760526
404 1 0.364262 0.263481 0.755461
405 1 0.49838 0.253101 0.749965
406 1 0.634003 0.24123 0.756781
407 1 0.751339 0.25309 0.75073
408 1 0.871391 0.253409 0.753256
409 1 1.00132 0.378506 0.746047
410 1 0.12126 0.368328 0.762705
411 1 0.246939 0.378422 0.747927
412 1 0.36481 0.380695 0.755389
413 1 0.486295 0.379786 0.763051
414 1 0.612573 0.371121 0.75809
415 1 0.746067 0.380885 0.746207
416 1 0.873015 0.368593 0.760419
417 1 1.00292 0.488895 0.75464
418 1 0.11404 0.502627 0.751807
419 1 0.249827 0.49941 0.751729
420 1 0.371421 0.506626 0.740826
421 1 0.488631 0.518461 0.748586
422 1 0.617933 0.498104 0.750079
423 1 0.755818 0.494296 0.747196
424 1 0.874804 0.50051 0.746113
425 1 0.994933 0.620899 0.759345
426 1 0.111013 0.631177 0.753044
427 1 0.256535 0.629378 0.742918
428 1 0.371473 0.632389 0.742188
429 1 0.49022 0.633016 0.753334
430 1 0.625934 0.633273 0.749913
431 1 0.749472 0.630869 0.748543
432 1 0.864818 0.641901 0.751736
433 1 0.996121 0.750573 0.751076
434 1 0.131737 0.753891 0.748696
435 1 0.260637 0.758718 0.736355
436 1 0.379304 0.746572 0.745701
437 1 0.511053 0.741893 0.739909
438 1 0.621699 0.75307 0.748401
439 1 0.735542 0.759739 0.745602
440 1 0.883345 0.752882 0.743449
441 1 1.00833 0.873379 0.751173
442 1 0.141432 0.874915 0.739679
443 1 0.246461 0.891218 0.7456
444 1 0.377788 0.876577 0.743923
445 1 0.500494 0.877288 0.745583
446 1 0.630617 0.888073 0.738174
447 1 0.742712 0.8873 0.738359
448 1 0.881158 0.872678 0.749472
449 1 0.994417 0.00232054 0.872193
450 1 0.121051 1.00779 0.872888
451 1 0.256945 0.997404 0.874478
452 1 0.381995 -0.00161181 0.868435
453 1 0.501453 1.00364 0.87352
454 1 0.625907 0.000947611 0.873413
455 1 0.747949 -0.00206301 0.874889
456 1 0.874011 0.00358771 0.876058
457 1 -0.0058833 0.132705 0.885544
458 1 0.125473 0.135811 0.873327
459 1 0.242918 0.127121 0.871666
460 1 0.371254 0.128666 0.876382
461 1 0.494191 0.131427 0.866155
462 1 0.635837 0.122205 0.877165
463 1 0.749747 0.130814 0.868601
464 1 0.86858 0.135271 0.874482
465 1 0.00208313 0.252283 0.875945
466 1 0.123904 0.251488 0.889531
467 1 0.244894 0.247342 0.890762
468 1 0.378035 0.251228 0.885466
469 1 0.501935 0.24879 0.881008
470 1 0.622019 0.252249 0.874448
471 1 0.745462 0.25579 0.879241
472 1 0.872363 0.248223 0.878552
473 1 0.999703 0.366449 0.883539
474 1 0.125318 0.379493 0.877582
475 1 0.247166 0.37405 0.881157
476 1 0.368695 0.374063 0.88564
477 1 0.490962 0.383358 0.877653
478 1 0.60921 0.379482 0.8822
479 1 0.74598 0.368924 0.876568
480 1 0.867553 0.372261 0.887597
481 1 0.991116 0.490166 0.893758
482 1 0.122631 0.503278 0.859866
483 1 0.245497 0.495558 0.87679
484 1 0.365349 0.507828 0.867971
485 1 0.501875 0.493946 0.877195
486 1 0.637599 0.498014 0.861969
487 1 0.763301 0.488385 0.872203
488 1 0.874757 0.506 0.870674
489 1 -0.00393999 0.616988 0.877358
490 1 0.127644 0.629034 0.86989
491 1 0.256432 0.630432 0.863984
492 1 0.374088 0.62493 0.872309
493 1 0.491968 0.627064 0.874558
494 1 0.63504 0.619757 0.864042
495 1 0.74765 0.622922 0.875513
496 1 0.874795 0.618379 0.8817
497 1 0.00464573 0.747755 0.865839
498 1 0.116248 0.762571 0.869887
499 1 0.240676 0.762562 0.863948
500 1 0.370794 0.753042 0.872801
501 1 0.493683 0.76097 0.867536
502 1 0.625824 0.756105 0.870132
503 1 0.763944 0.75215 0.86698
504 1 0.880883 0.748573 0.874898
505 1 1.00634 0.875572 0.866375
506 1 0.128072 0.888677 0.865493
507 1 0.253851 0.872704 0.872091
508 1 0.3762 0.872542 0.879988
509 1 0.502519 0.875839 0.87034
510 1 0.63071 0.869154 0.875915
511 1 0.755628 0.872971 0.865552
512 1 0.872458 0.867328 0.877527
ITEM: TIMESTEP
100000
ITEM: NUMBER OF ATOMS
512
ITEM: BOX BOUNDS xy xz yz pp pp pp
-1.3036662867997961e-01 5.6367158815946723e+01 1.4124381358633375e+01
-1.1290081222896120e-01 3.2505960710350365e+01 1.4124381358633375e+01