ITEM: TIMESTEP
0
ITEM: NUMBER OF ATOMS
512
ITEM: BOX BOUNDS xy xz yz pp pp pp
0.0000000000000000e+00 4.3878081289999997e+01 1.0969520320000001e+01
0.0000000000000000e+00 2.5333022050000000e+01 1.0969520320000001e+01
0.0000000000000000e+00 1.7913151670000001e+01 6.3332555099999999e+00
ITEM: ATOMS id type xs ys zs
1 1 0 0 0
2 1 0.125 0 0
3 1 0.25 0 0
4 1 0.375 0 0
5 1 0.5 0 0
6 1 0.625 0 0
7 1 0.75 0 0
8 1 0.875 0 0
9 1 1 0.125 0
10 1 0.125 0.125 0
11 1 0.25 0.125 0
12 1 0.375 0.125 0
13 1 0.5 0.125 0
14 1 0.625 0.125 0
15 1 0.75 0.125 0
16 1 0.875 0.125 0
17 1 1 0.25 0
18 1 0.125 0.25 0
19 1 0.25 0.25 0
20 1 0.375 0.25 0
21 1 0.5 0.25 0
22 1 0.625 0.25 0
23 1 0.75 0.25 0
24 1 0.875 0.25 0
25 1 1 0.375 0
26 1 0.125 0.375 0
27 1 0.25 0.375 0
28 1 0.375 0.375 0
29 1 0.5 0.375 0
30 1 0.625 0.375 0
31 1 0.75 0.375 0
32 1 0.875 0.375 0
33 1 3.45281e-10 0.5 0
34 1 0.125 0.5 0
35 1 0.25 0.5 0
36 1 0.375 0.5 0
37 1 0.5 0.5 0
38 1 0.625 0.5 0
39 1 0.75 0.5 0
40 1 0.875 0.5 0
41 1 1 0.625 0
42 1 0.125 0.625 0
43 1 0.25 0.625 0
44 1 0.375 0.625 0
45 1 0.5 0.625 0
46 1 0.625 0.625 0
47 1 0.75 0.625 0
48 1 0.875 0.625 0
49 1 1 0.75 0
50 1 0.125 0.75 0
51 1 0.25 0.75 0
52 1 0.375 0.75 0
53 1 0.5 0.75 0
54 1 0.625 0.75 0
55 1 0.75 0.75 0
56 1 0.875 0.75 0
57 1 1.29488e-10 0.875 0
58 1 0.125 0.875 0
59 1 0.25 0.875 0
60 1 0.375 0.875 0
61 1 0.5 0.875 0
62 1 0.625 0.875 0
63 1 0.75 0.875 0
64 1 0.875 0.875 0
65 1 1 4.58324e-10 0.125
66 1 0.125 4.58324e-10 0.125
67 1 0.25 4.58324e-10 0.125
68 1 0.375 4.58324e-10 0.125
69 1 0.5 4.58324e-10 0.125
70 1 0.625 4.58324e-10 0.125
71 1 0.75 4.58324e-10 0.125
72 1 0.875 4.58324e-10 0.125
73 1 1 0.125 0.125
74 1 0.125 0.125 0.125
75 1 0.25 0.125 0.125
76 1 0.375 0.125 0.125
77 1 0.5 0.125 0.125
78 1 0.625 0.125 0.125
79 1 0.75 0.125 0.125
80 1 0.875 0.125 0.125
81 1 1 0.25 0.125
82 1 0.125 0.25 0.125
83 1 0.25 0.25 0.125
84 1 0.375 0.25 0.125
85 1 0.5 0.25 0.125
86 1 0.625 0.25 0.125
87 1 0.75 0.25 0.125
88 1 0.875 0.25 0.125
89 1 2.41756e-10 0.375 0.125
90 1 0.125 0.375 0.125
91 1 0.25 0.375 0.125
92 1 0.375 0.375 0.125
93 1 0.5 0.375 0.125
94 1 0.625 0.375 0.125
95 1 0.75 0.375 0.125
96 1 0.875 0.375 0.125
97 1 1 0.5 0.125
98 1 0.125 0.5 0.125
99 1 0.25 0.5 0.125
100 1 0.375 0.5 0.125
101 1 0.5 0.5 0.125
102 1 0.625 0.5 0.125
103 1 0.75 0.5 0.125
104 1 0.875 0.5 0.125
105 1 1 0.625 0.125
106 1 0.125 0.625 0.125
107 1 0.25 0.625 0.125
108 1 0.375 0.625 0.125
109 1 0.5 0.625 0.125
110 1 0.625 0.625 0.125
111 1 0.75 0.625 0.125
112 1 0.875 0.625 0.125
113 1 2.59642e-11 0.75 0.125
114 1 0.125 0.75 0.125
115 1 0.25 0.75 0.125
116 1 0.375 0.75 0.125
117 1 0.5 0.75 0.125
118 1 0.625 0.75 0.125
119 1 0.75 0.75 0.125
120 1 0.875 0.75 0.125
121 1 3.9439e-10 0.875 0.125
122 1 0.125 0.875 0.125
123 1 0.25 0.875 0.125
124 1 0.375 0.875 0.125
125 1 0.5 0.875 0.125
126 1 0.625 0.875 0.125
127 1 0.75 0.875 0.125
128 1 0.875 0.875 0.125
129 1 1 1.9898e-10 0.25
130 1 0.125 1.9898e-10 0.25
131 1 0.25 1.9898e-10 0.25
132 1 0.375 1.9898e-10 0.25
133 1 0.5 1.9898e-10 0.25
134 1 0.625 1.9898e-10 0.25
135 1 0.75 1.9898e-10 0.25
136 1 0.875 1.9898e-10 0.25
137 1 1 0.125 0.25
138 1 0.125 0.125 0.25
139 1 0.25 0.125 0.25
140 1 0.375 0.125 0.25
141 1 0.5 0.125 0.25
142 1 0.625 0.125 0.25
143 1 0.75 0.125 0.25
144 1 0.875 0.125 0.25
145 1 2.1531e-10 0.25 0.25
146 1 0.125 0.25 0.25
147 1 0.25 0.25 0.25
148 1 0.375 0.25 0.25
149 1 0.5 0.25 0.25
150 1 0.625 0.25 0.25
151 1 0.75 0.25 0.25
152 1 0.875 0.25 0.25
153 1 1 0.375 0.25
154 1 0.125 0.375 0.25
155 1 0.25 0.375 0.25
156 1 0.375 0.375 0.25
157 1 0.5 0.375 0.25
158 1 0.625 0.375 0.25
159 1 0.75 0.375 0.25
160 1 0.875 0.375 0.25
161 1 1 0.5 0.25
162 1 0.125 0.5 0.25
163 1 0.25 0.5 0.25
164 1 0.375 0.5 0.25
165 1 0.5 0.5 0.25
166 1 0.625 0.5 0.25
167 1 0.75 0.5 0.25
168 1 0.875 0.5 0.25
169 1 1 0.625 0.25
170 1 0.125 0.625 0.25
171 1 0.25 0.625 0.25
172 1 0.375 0.625 0.25
173 1 0.5 0.625 0.25
174 1 0.625 0.625 0.25
175 1 0.75 0.625 0.25
176 1 0.875 0.625 0.25
177 1 1 0.75 0.25
178 1 0.125 0.75 0.25
179 1 0.25 0.75 0.25
180 1 0.375 0.75 0.25
181 1 0.5 0.75 0.25
182 1 0.625 0.75 0.25
183 1 0.75 0.75 0.25
184 1 0.875 0.75 0.25
185 1 1 0.875 0.25
186 1 0.125 0.875 0.25
187 1 0.25 0.875 0.25
188 1 0.375 0.875 0.25
189 1 0.5 0.875 0.25
190 1 0.625 0.875 0.25
191 1 0.75 0.875 0.25
192 1 0.875 0.875 0.25
193 1 1 3.17066e-10 0.375
194 1 0.125 3.17066e-10 0.375
195 1 0.25 3.17066e-10 0.375
196 1 0.375 3.17066e-10 0.375
197 1 0.5 3.17066e-10 0.375
198 1 0.625 3.17066e-10 0.375
199 1 0.75 3.17066e-10 0.375
200 1 0.875 3.17066e-10 0.375
201 1 3.47073e-11 0.125 0.375
202 1 0.125 0.125 0.375
203 1 0.25 0.125 0.375
204 1 0.375 0.125 0.375
205 1 0.5 0.125 0.375
206 1 0.625 0.125 0.375
207 1 0.75 0.125 0.375
208 1 0.875 0.125 0.375
209 1 1 0.25 0.375
210 1 0.125 0.25 0.375
211 1 0.25 0.25 0.375
212 1 0.375 0.25 0.375
213 1 0.5 0.25 0.375
214 1 0.625 0.25 0.375
215 1 0.75 0.25 0.375
216 1 0.875 0.25 0.375
217 1 1 0.375 0.375
218 1 0.125 0.375 0.375
219 1 0.25 0.375 0.375
220 1 0.375 0.375 0.375
221 1 0.5 0.375 0.375
222 1 0.625 0.375 0.375
223 1 0.75 0.375 0.375
224 1 0.875 0.375 0.375
225 1 8.20762e-11 0.5 0.375
226 1 0.125 0.5 0.375
227 1 0.25 0.5 0.375
228 1 0.375 0.5 0.375
229 1 0.5 0.5 0.375
230 1 0.625 0.5 0.375
231 1 0.75 0.5 0.375
232 1 0.875 0.5 0.375
233 1 1.87341e-10 0.625 0.375
234 1 0.125 0.625 0.375
235 1 0.25 0.625 0.375
236 1 0.375 0.625 0.375
237 1 0.5 0.625 0.375
238 1 0.625 0.625 0.375
239 1 0.75 0.625 0.375
240 1 0.875 0.625 0.375
241 1 2.68122e-11 0.75 0.375
242 1 0.125 0.75 0.375
243 1 0.25 0.75 0.375
244 1 0.375 0.75 0.375
245 1 0.5 0.75 0.375
246 1 0.625 0.75 0.375
247 1 0.75 0.75 0.375
248 1 0.875 0.75 0.375
249 1 1.32077e-10 0.875 0.375
250 1 0.125 0.875 0.375
251 1 0.25 0.875 0.375
252 1 0.375 0.875 0.375
253 1 0.5 0.875 0.375
254 1 0.625 0.875 0.375
255 1 0.75 0.875 0.375
256 1 0.875 0.875 0.375
257 1 1.94344e-10 2.43805e-10 0.5
258 1 0.125 2.43805e-10 0.5
259 1 0.25 2.43805e-10 0.5
260 1 0.375 2.43805e-10 0.5
261 1 0.5 2.43805e-10 0.5
262 1 0.625 2.43805e-10 0.5
263 1 0.75 2.43805e-10 0.5
264 1 0.875 2.43805e-10 0.5
265 1 1 0.125 0.5
266 1 0.125 0.125 0.5
267 1 0.25 0.125 0.5
268 1 0.375 0.125 0.5
269 1 0.5 0.125 0.5
270 1 0.625 0.125 0.5
271 1 0.75 0.125 0.5
272 1 0.875 0.125 0.5
273 1 1 0.25 0.5
274 1 0.125 0.25 0.5
275 1 0.25 0.25 0.5
276 1 0.375 0.25 0.5
277 1 0.5 0.25 0.5
278 1 0.625 0.25 0.5
279 1 0.75 0.25 0.5
280 1 0.875 0.25 0.5
281 1 1 0.375 0.5
282 1 0.125 0.375 0.5
283 1 0.25 0.375 0.5
284 1 0.375 0.375 0.5
285 1 0.5 0.375 0.5
286 1 0.625 0.375 0.5
287 1 0.75 0.375 0.5
288 1 0.875 0.375 0.5
289 1 8.38162e-11 0.5 0.5
290 1 0.125 0.5 0.5
291 1 0.25 0.5 0.5
292 1 0.375 0.5 0.5
293 1 0.5 0.5 0.5
294 1 0.625 0.5 0.5
295 1 0.75 0.5 0.5
296 1 0.875 0.5 0.5
297 1 1 0.625 0.5
298 1 0.125 0.625 0.5
299 1 0.25 0.625 0.5
300 1 0.375 0.625 0.5
301 1 0.5 0.625 0.5
302 1 0.625 0.625 0.5
303 1 0.75 0.625 0.5
304 1 0.875 0.625 0.5
305 1 2.91713e-10 0.75 0.5
306 1 0.125 0.75 0.5
307 1 0.25 0.75 0.5
308 1 0.375 0.75 0.5
309 1 0.5 0.75 0.5
310 1 0.625 0.75 0.5
311 1 0.75 0.75 0.5
312 1 0.875 0.75 0.5
313 1 1 0.875 0.5
314 1 0.125 0.875 0.5
315 1 0.25 0.875 0.5
316 1 0.375 0.875 0.5
317 1 0.5 0.875 0.5
318 1 0.625 0.875 0.5
319 1 0.75 0.875 0.5
320 1 0.875 0.875 0.5
321 1 1 5.16046e-10 0.625
322 1 0.125 5.16046e-10 0.625
323 1 0.25 5.16046e-10 0.625
324 1 0.375 5.16046e-10 0.625
325 1 0.5 5.16046e-10 0.625
326 1 0.625 5.16046e-10 0.625
327 1 0.75 5.16046e-10 0.625
328 1 0.875 5.16046e-10 0.625
329 1 1 0.125 0.625
330 1 0.125 0.125 0.625
331 1 0.25 0.125 0.625
332 1 0.375 0.125 0.625
333 1 0.5 0.125 0.625
334 1 0.625 0.125 0.625
335 1 0.75 0.125 0.625
336 1 0.875 0.125 0.625
337 1 1 0.25 0.625
338 1 0.125 0.25 0.625
339 1 0.25 0.25 0.625
340 1 0.375 0.25 0.625
341 1 0.5 0.25 0.625
342 1 0.625 0.25 0.625
343 1 0.75 0.25 0.625
344 1 0.875 0.25 0.625
345 1 1 0.375 0.625
346 1 0.125 0.375 0.625
347 1 0.25 0.375 0.625
348 1 0.375 0.375 0.625
349 1 0.5 0.375 0.625
350 1 0.625 0.375 0.625
351 1 0.75 0.375 0.625
352 1 0.875 0.375 0.625
353 1 1 0.5 0.625
354 1 0.125 0.5 0.625
355 1 0.25 0.5 0.625
356 1 0.375 0.5 0.625
357 1 0.5 0.5 0.625
358 1 0.625 0.5 0.625
359 1 0.75 0.5 0.625
360 1 0.875 0.5 0.625
361 1 1 0.625 0.625
362 1 0.125 0.625 0.625
363 1 0.25 0.625 0.625
364 1 0.375 0.625 0.625
365 1 0.5 0.625 0.625
366 1 0.625 0.625 0.625
367 1 0.75 0.625 0.625
368 1 0.875 0.625 0.625
369 1 1 0.75 0.625
370 1 0.125 0.75 0.625
371 1 0.25 0.75 0.625
372 1 0.375 0.75 0.625
373 1 0.5 0.75 0.625
374 1 0.625 0.75 0.625
375 1 0.75 0.75 0.625
376 1 0.875 0.75 0.625
377 1 1 0.875 0.625
378 1 0.125 0.875 0.625
379 1 0.25 0.875 0.625
380 1 0.375 0.875 0.625
381 1 0.5 0.875 0.625
382 1 0.625 0.875 0.625
383 1 0.75 0.875 0.625
384 1 0.875 0.875 0.625
385 1 1 6.28868e-10 0.75
386 1 0.125 6.28868e-10 0.75
387 1 0.25 6.28868e-10 0.75
388 1 0.375 6.28868e-10 0.75
389 1 0.5 6.28868e-10 0.75
390 1 0.625 6.28868e-10 0.75
391 1 0.75 6.28868e-10 0.75
392 1 0.875 6.28868e-10 0.75
393 1 3.4664e-11 0.125 0.75
394 1 0.125 0.125 0.75
395 1 0.25 0.125 0.75
396 1 0.375 0.125 0.75
397 1 0.5 0.125 0.75
398 1 0.625 0.125 0.75
399 1 0.75 0.125 0.75
400 1 0.875 0.125 0.75
401 1 1.39928e-10 0.25 0.75
402 1 0.125 0.25 0.75
403 1 0.25 0.25 0.75
404 1 0.375 0.25 0.75
405 1 0.5 0.25 0.75
406 1 0.625 0.25 0.75
407 1 0.75 0.25 0.75
408 1 0.875 0.25 0.75
409 1 1 0.375 0.75
410 1 0.125 0.375 0.75
411 1 0.25 0.375 0.75
412 1 0.375 0.375 0.75
413 1 0.5 0.375 0.75
414 1 0.625 0.375 0.75
415 1 0.75 0.375 0.75
416 1 0.875 0.375 0.75
417 1 8.46644e-11 0.5 0.75
418 1 0.125 0.5 0.75
419 1 0.25 0.5 0.75
420 1 0.375 0.5 0.75
421 1 0.5 0.5 0.75
422 1 0.625 0.5 0.75
423 1 0.75 0.5 0.75
424 1 0.875 0.5 0.75
425 1 1 0.625 0.75
426 1 0.125 0.625 0.75
427 1 0.25 0.625 0.75
428 1 0.375 0.625 0.75
429 1 0.5 0.625 0.75
430 1 0.625 0.625 0.75
431 1 0.75 0.625 0.75
432 1 0.875 0.625 0.75
433 1 2.94004e-11 0.75 0.75
434 1 0.125 0.75 0.75
435 1 0.25 0.75 0.75
436 1 0.375 0.75 0.75
437 1 0.5 0.75 0.75
438 1 0.625 0.75 0.75
439 1 0.75 0.75 0.75
440 1 0.875 0.75 0.75
441 1 1 0.875 0.75
442 1 0.125 0.875 0.75
443 1 0.25 0.875 0.75
444 1 0.375 0.875 0.75
445 1 0.5 0.875 0.75
446 1 0.625 0.875 0.75
447 1 0.75 0.875 0.75
448 1 0.875 0.875 0.75
449 1 1 5.60871e-10 0.875
450 1 0.125 5.60871e-10 0.875
451 1 0.25 5.60871e-10 0.875
452 1 0.375 5.60871e-10 0.875
453 1 0.5 5.60871e-10 0.875
454 1 0.625 5.60871e-10 0.875
455 1 0.75 5.60871e-10 0.875
456 1 0.875 5.60871e-10 0.875
457 1 3.64038e-11 0.125 0.875
458 1 0.125 0.125 0.875
459 1 0.25 0.125 0.875
460 1 0.375 0.125 0.875
461 1 0.5 0.125 0.875
462 1 0.625 0.125 0.875
463 1 0.75 0.125 0.875
464 1 0.875 0.125 0.875
465 1 1 0.25 0.875
466 1 0.125 0.25 0.875
467 1 0.25 0.25 0.875
468 1 0.375 0.25 0.875
469 1 0.5 0.25 0.875
470 1 0.625 0.25 0.875
471 1 0.75 0.25 0.875
472 1 0.875 0.25 0.875
473 1 1 0.375 0.875
474 1 0.125 0.375 0.875
475 1 0.25 0.375 0.875
476 1 0.375 0.375 0.875
477 1 0.5 0.375 0.875
478 1 0.625 0.375 0.875
479 1 0.75 0.375 0.875
480 1 0.875 0.375 0.875
481 1 1 0.5 0.875
482 1 0.125 0.5 0.875
483 1 0.25 0.5 0.875
484 1 0.375 0.5 0.875
485 1 0.5 0.5 0.875
486 1 0.625 0.5 0.875
487 1 0.75 0.5 0.875
488 1 0.875 0.5 0.875
489 1 1.89037e-10 0.625 0.875
490 1 0.125 0.625 0.875
491 1 0.25 0.625 0.875
492 1 0.375 0.625 0.875
493 1 0.5 0.625 0.875
494 1 0.625 0.625 0.875
495 1 0.75 0.625 0.875
496 1 0.875 0.625 0.875
497 1 1 0.75 0.875
498 1 0.125 0.75 0.875
499 1 0.25 0.75 0.875
500 1 0.375 0.75 0.875
501 1 0.5 0.75 0.875
502 1 0.625 0.75 0.875
503 1 0.75 0.75 0.875
504 1 0.875 0.75 0.875
505 1 3.26421e-10 0.875 0.875
506 1 0.125 0.875 0.875
507 1 0.25 0.875 0.875
508 1 0.375 0.875 0.875
509 1 0.5 0.875 0.875
510 1 0.625 0.875 0.875
511 1 0.75 0.875 0.875
512 1 0.875 0.875 0.875
ITEM: TIMESTEP
50000
ITEM: NUMBER OF ATOMS
512
ITEM: BOX BOUNDS xy xz yz pp pp pp
-8.1413330071606893e-02 4.4122321280139957e+01 1.1050933650034462e+01
-7.0506012057833800e-02 2.5450532070071908e+01 1.1050933650034462e+01
-6.6473705610144762e-02 1.7979625375610627e+01 6.3802595180138511e+00
ITEM: ATOMS id type xs ys zs
1 1 -0.00545087 0.00292655 -0.00126351
2 1 0.126081 0.000402165 -0.00232881
3 1 0.250632 -0.0014245 -0.000691777
4 1 0.37386 0.000924426 -0.00192189
5 1 0.49918 0.00678638 -0.00236123
6 1 0.621631 0.0082807 -0.00182336
7 1 0.746482 0.00904619 -0.00296058
8 1 0.873446 0.0068585 8.39219e-05
9 1 0.999695 0.129556 -0.00147581
10 1 0.123087 0.120547 0.00146814
11 1 0.24742 0.118991 0.00453395
12 1 0.372306 0.128094 0.000121492
13 1 0.498246 0.129894 -0.00181176
14 1 0.625177 0.130382 -0.000988892
15 1 0.74617 0.124017 0.00569212
16 1 0.871383 0.123603 -0.000476618
17 1 0.997655 0.25725 -0.00863994
18 1 0.129172 0.247351 0.00173725
19 1 0.24788 0.24461 0.0102176
20 1 0.379049 0.250589 1.026e-07
21 1 0.495934 0.259594 0.000716365
22 1 0.626858 0.250536 -0.00186501
23 1 0.756374 0.254066 -0.00265873
24 1 0.877521 0.244503 0.000350565
25 1 1.00179 0.372952 -0.0019653
26 1 0.125628 0.372173 0.00486378
27 1 0.250154 0.373748 -0.00196863
28 1 0.371392 0.375693 -0.0030821
29 1 0.496421 0.385133 0.00035857
30 1 0.619253 0.375995 0.00103907
31 1 0.749045 0.377855 0.000284604
32 1 0.870802 0.3758 0.00265607
33 1 0.00302929 0.496985 -0.00256644
34 1 0.121988 0.501021 0.00161119
35 1 0.243545 0.504313 -0.00498191
36 1 0.370543 0.500654 -0.00396922
37 1 0.494335 0.507126 -0.00069833
38 1 0.625969 0.499956 0.0010599
39 1 0.750354 0.498646 -0.002759
40 1 0.881749 0.494522 -0.00181958
41 1 1.00151 0.621556 0.00103933
42 1 0.121927 0.632195 -0.00921837
43 1 0.244096 0.627461 8.97305e-05
44 1 0.368659 0.623867 -0.00073497
45 1 0.496079 0.628939 0.00832127
46 1 0.623809 0.62004 0.00860665
47 1 0.750682 0.623077 0.00562488
48 1 0.882502 0.620278 -0.00607101
49 1 0.99911 0.750599 -0.00157041
50 1 0.121079 0.755571 -0.00272825
51 1 0.245191 0.748819 0.00290644
52 1 0.366134 0.752054 0.000336368
53 1 0.502738 0.753612 -0.00339811
54 1 0.629883 0.746235 0.00130787
55 1 0.747762 0.755032 0.00046957
56 1 0.871979 0.750088 0.00270708
57 1 -0.00693821 0.875072 0.00500737
58 1 0.121022 0.873631 0.00148736
59 1 0.248461 0.876434 0.000677589
60 1 0.367955 0.883063 -0.00328737
61 1 0.503757 0.877088 -0.00419074
62 1 0.626751 0.880488 -0.00262254
63 1 0.748001 0.880963 -0.00464626
64 1 0.865388 0.881836 0.000336436
65 1 1.00209 0.00299419 0.121813
66 1 0.115728 -0.00161233 0.133345
67 1 0.245389 0.00196376 0.12515
68 1 0.373524 0.00106173 0.129642
69 1 0.504487 0.00396526 0.119063
70 1 0.620118 0.0119515 0.120892
71 1 0.745357 0.00167852 0.124886
72 1 0.879328 3.98413e-05 0.129572
73 1 0.999284 0.128187 0.12302
74 1 0.124542 0.122228 0.125493
75 1 0.248874 0.120997 0.129598
76 1 0.376971 0.127206 0.122239
77 1 0.493848 0.133707 0.124217
78 1 0.624793 0.127588 0.12369
79 1 0.751246 0.122635 0.124233
80 1 0.878465 0.119325 0.124831
81 1 0.999873 0.249028 0.121066
82 1 0.125136 0.243848 0.131648
83 1 0.251741 0.247599 0.12653
84 1 0.365442 0.260181 0.125689
85 1 0.496415 0.250749 0.128089
86 1 0.627921 0.245973 0.124262
87 1 0.748509 0.247593 0.12828
88 1 0.87622 0.248238 0.1222
89 1 0.000168664 0.373368 0.124099
90 1 0.126624 0.370995 0.128282
91 1 0.25012 0.370388 0.126629
92 1 0.371035 0.377726 0.121091
93 1 0.500611 0.376361 0.124178
94 1 0.625279 0.373128 0.126543
95 1 0.74541 0.375126 0.126677
96 1 0.870448 0.377075 0.122724
97 1 1.00178 0.492943 0.128235
98 1 0.120852 0.495405 0.130584
99 1 0.247755 0.498743 0.128052
100 1 0.373406 0.504081 0.117264
101 1 0.499647 0.499952 0.126515
102 1 0.623693 0.499 0.128554
103 1 0.752036 0.496853 0.121591
104 1 0.880083 0.495559 0.122639
105 1 0.993075 0.623448 0.129203
106 1 0.119019 0.627262 0.12442
107 1 0.245226 0.628967 0.125859
108 1 0.372199 0.622853 0.130165
109 1 0.499193 0.623935 0.127394
110 1 0.622672 0.621719 0.126135
111 1 0.75155 0.621691 0.126096
112 1 0.878251 0.622461 0.123935
113 1 -0.0107566 0.754923 0.134918
114 1 0.117796 0.750617 0.12844
115 1 0.244565 0.751141 0.126275
116 1 0.374082 0.755739 0.121307
117 1 0.498328 0.75465 0.124932
118 1 0.625489 0.755716 0.120834
119 1 0.754353 0.75551 0.123337
120 1 0.868968 0.754039 0.127631
121 1 -0.000622269 0.877297 0.124892
122 1 0.120659 0.875247 0.126536
123 1 0.249927 0.879559 0.121764
124 1 0.379241 0.871845 0.119973
125 1 0.500052 0.880513 0.124741
126 1 0.62395 0.875793 0.125734
127 1 0.741674 0.881727 0.126179
128 1 0.870401 0.880767 0.122874
129 1 0.997507 0.00396849 0.252846
130 1 0.119701 -0.000309895 0.254857
131 1 0.245451 0.000925143 0.257386
132 1 0.372988 0.000750695 0.249796
133 1 0.497701 0.00421917 0.248345
134 1 0.628497 -0.00526567 0.24939
135 1 0.749581 -0.000104982 0.251773
136 1 0.872825 -0.00403967 0.257434
137 1 1.00203 0.12574 0.251455
138 1 0.130191 0.119249 0.253008
139 1 0.25202 0.125225 0.251548
140 1 0.377626 0.124484 0.251689
141 1 0.501013 0.124028 0.252406
142 1 0.628735 0.119104 0.246246
143 1 0.751682 0.125998 0.25067
144 1 0.877215 0.125329 0.249755
145 1 0.00347398 0.245473 0.247436
146 1 0.121828 0.250409 0.252361
147 1 0.249538 0.24672 0.253547
148 1 0.370304 0.250936 0.251049
149 1 0.493072 0.248599 0.255944
150 1 0.626331 0.252709 0.248439
151 1 0.756359 0.24684 0.245761
152 1 0.881154 0.246084 0.247517
153 1 1.00251 0.371406 0.250413
154 1 0.131698 0.364404 0.248203
155 1 0.249684 0.368598 0.253249
156 1 0.375184 0.37903 0.251673
157 1 0.496768 0.3767 0.249994
158 1 0.624062 0.377927 0.245931
159 1 0.752781 0.368474 0.249394
160 1 0.875483 0.361927 0.253828
161 1 1.00887 0.488098 0.257902
162 1 0.128752 0.490634 0.24935
163 1 0.252163 0.495318 0.250312
164 1 0.370323 0.507521 0.251009
165 1 0.496622 0.499661 0.252067
166 1 0.631388 0.497861 0.243746
167 1 0.758574 0.497388 0.244823
168 1 0.875699 0.491898 0.249218
169 1 1.00146 0.62275 0.249958
170 1 0.127472 0.626301 0.242232
171 1 0.245904 0.624261 0.252782
172 1 0.372469 0.630262 0.252001
173 1 0.502131 0.626831 0.251087
174 1 0.632597 0.623922 0.242105
175 1 0.751545 0.626676 0.246344
176 1 0.879711 0.61763 0.249184
177 1 1.00057 0.747772 0.254682
178 1 0.130608 0.750683 0.251714
179 1 0.254323 0.749013 0.248277
180 1 0.378179 0.752903 0.249693
181 1 0.504009 0.74979 0.245442
182 1 0.623873 0.746976 0.251647
183 1 0.749756 0.748282 0.248166
184 1 0.872833 0.749793 0.249023
185 1 1.00247 0.875185 0.251158
186 1 0.131898 0.872968 0.249566
187 1 0.256036 0.874081 0.249021
188 1 0.379255 0.875812 0.243782
189 1 0.502656 0.875468 0.248527
190 1 0.625802 0.873535 0.246353
191 1 0.751898 0.875466 0.252969
192 1 0.873344 0.87399 0.251558
193 1 1.00122 -0.00341502 0.37643
194 1 0.122568 -0.00678229 0.377022
195 1 0.252175 -0.0022286 0.375976
196 1 0.382392 -0.00072553 0.368826
197 1 0.502442 0.000441894 0.376873
198 1 0.627462 0.00246713 0.374261
199 1 0.755258 -0.00549955 0.376078
200 1 0.873411 -0.00337784 0.380707
201 1 0.00195767 0.121769 0.374575
202 1 0.12276 0.122782 0.379534
203 1 0.255961 0.121539 0.375798
204 1 0.373864 0.131873 0.374231
205 1 0.49971 0.125121 0.375419
206 1 0.630501 0.121335 0.37375
207 1 0.754935 0.127973 0.371286
208 1 0.870085 0.122659 0.376339
209 1 1.00408 0.248562 0.37134
210 1 0.128187 0.247876 0.374658
211 1 0.250859 0.252079 0.377479
212 1 0.375462 0.25844 0.374207
213 1 0.505025 0.248506 0.376644
214 1 0.624524 0.255066 0.372405
215 1 0.748539 0.253556 0.373523
216 1 0.879288 0.246223 0.377153
217 1 1.00502 0.37415 0.374553
218 1 0.122953 0.37189 0.377167
219 1 0.2513 0.373894 0.377154
220 1 0.37175 0.380986 0.379804
221 1 0.501168 0.37862 0.365783
222 1 0.623474 0.378789 0.373406
223 1 0.758092 0.3744 0.374668
224 1 0.882158 0.370827 0.379941
225 1 -0.00124668 0.503695 0.376635
226 1 0.130549 0.490282 0.377014
227 1 0.245394 0.506709 0.373746
228 1 0.373443 0.497889 0.377144
229 1 0.506596 0.506708 0.368839
230 1 0.633469 0.495917 0.370075
231 1 0.75511 0.499927 0.369085
232 1 0.874003 0.495404 0.375993
233 1 -0.00236314 0.622859 0.375441
234 1 0.124466 0.620024 0.376316
235 1 0.252541 0.626055 0.373485
236 1 0.385364 0.623043 0.37799
237 1 0.507447 0.630266 0.370766
238 1 0.629874 0.628591 0.368027
239 1 0.751186 0.619983 0.37656
240 1 0.867902 0.62286 0.376156
241 1 -4.05421e-05 0.750332 0.372698
242 1 0.13107 0.754828 0.367527
243 1 0.258966 0.749883 0.367422
244 1 0.379945 0.746183 0.375369
245 1 0.50006 0.753809 0.372795
246 1 0.628144 0.749024 0.374696
247 1 0.747093 0.750742 0.37299
248 1 0.877647 0.749256 0.371092
249 1 -0.00107762 0.876002 0.380256
250 1 0.125253 0.874832 0.369657
251 1 0.256596 0.866017 0.379362
252 1 0.375144 0.873348 0.376364
253 1 0.4991 0.87467 0.376975
254 1 0.62605 0.878813 0.372135
255 1 0.749709 0.873245 0.374638
256 1 0.878031 0.873593 0.376763
257 1 -0.00116087 -0.00180534 0.499713
258 1 0.127555 -0.0037085 0.498137
259 1 0.24497 0.00191998 0.5037
260 1 0.379124 0.010228 0.496875
261 1 0.501859 0.000801025 0.500956
262 1 0.631011 -0.00236637 0.500659
263 1 0.752815 -0.000525048 0.501075
264 1 0.872868 -0.00225941 0.50051
265 1 0.998472 0.122969 0.505143
266 1 0.130858 0.125708 0.49694
267 1 0.253068 0.126079 0.504163
268 1 0.372674 0.131028 0.498964
269 1 0.506256 0.122657 0.501799
270 1 0.629001 0.128797 0.499525
271 1 0.74897 0.123783 0.50054
272 1 0.877242 0.118485 0.503772
273 1 1.00302 0.245054 0.500222
274 1 0.126254 0.255432 0.496834
275 1 0.248073 0.253324 0.501757
276 1 0.37671 0.249315 0.50433
277 1 0.498146 0.253459 0.502461
278 1 0.625631 0.255788 0.492256
279 1 0.754137 0.250493 0.501439
280 1 0.878767 0.244393 0.501964
281 1 0.996514 0.376844 0.502779
282 1 0.125418 0.375651 0.498483
283 1 0.24998 0.379116 0.500025
284 1 0.372837 0.372912 0.505391
285 1 0.503941 0.37309 0.495414
286 1 0.624393 0.3793 0.495274
287 1 0.753137 0.375763 0.497318
288 1 0.874566 0.372653 0.499371
289 1 0.00245485 0.501066 0.500653
290 1 0.123397 0.50403 0.498928
291 1 0.24981 0.499657 0.496829
292 1 0.378821 0.493985 0.503327
293 1 0.503802 0.505064 0.493654
294 1 0.628703 0.502936 0.491142
295 1 0.74993 0.50044 0.498568
296 1 0.871174 0.499957 0.49993
297 1 1.00234 0.631722 0.494302
298 1 0.135586 0.628506 0.489219
299 1 0.252788 0.625734 0.499449
300 1 0.373736 0.627928 0.499125
301 1 0.497332 0.624554 0.497324
302 1 0.616761 0.628712 0.498865
303 1 0.74249 0.630271 0.495478
304 1 0.871263 0.623813 0.50335
305 1 0.00385444 0.747002 0.501022
306 1 0.135567 0.748879 0.491918
307 1 0.256982 0.746074 0.492501
308 1 0.372256 0.751948 0.501549
309 1 0.492619 0.753109 0.502428
310 1 0.617095 0.747847 0.506363
311 1 0.751009 0.74234 0.496413
312 1 0.878315 0.748558 0.498822
313 1 1.00091 0.869859 0.503021
314 1 0.119996 0.869347 0.508707
315 1 0.242155 0.876957 0.502876
316 1 0.37283 0.88173 0.495917
317 1 0.501785 0.873524 0.499307
318 1 0.629785 0.864989 0.501696
319 1 0.742216 0.875489 0.503073
320 1 0.872571 0.871655 0.501851
321 1 1.00207 -0.00541035 0.627576
322 1 0.124309 -0.00167911 0.626182
323 1 0.252912 0.00281811 0.628464
324 1 0.374858 0.00629217 0.624221
325 1 0.502547 7.21029e-07 0.62616
326 1 0.623487 0.00447497 0.624397
327 1 0.748772 0.00472669 0.624373
328 1 0.872287 -0.00727938 0.63067
329 1 1.00541 0.120943 0.621778
330 1 0.12329 0.124493 0.626776
331 1 0.250439 0.135607 0.6258
332 1 0.377097 0.127109 0.619807
333 1 0.501774 0.132744 0.623506
334 1 0.627215 0.127421 0.624721
335 1 0.752152 0.124796 0.624309
336 1 0.87678 0.11852 0.629912
337 1 1.00492 0.25007 0.620126
338 1 0.12499 0.257015 0.621995
339 1 0.248809 0.257725 0.620442
340 1 0.367091 0.251995 0.628898
341 1 0.504981 0.250206 0.625105
342 1 0.623891 0.254943 0.617699
343 1 0.757302 0.243458 0.62816
344 1 0.880653 0.245334 0.625866
345 1 0.999794 0.376419 0.625269
346 1 0.121961 0.380514 0.626701
347 1 0.246826 0.378776 0.626442
348 1 0.373432 0.376483 0.622767
349 1 0.501348 0.376206 0.617869
350 1 0.632166 0.371892 0.618359
351 1 0.752396 0.366298 0.624218
352 1 0.878454 0.372237 0.617827
353 1 0.994827 0.507191 0.620033
354 1 0.12213 0.504961 0.622379
355 1 0.254881 0.500347 0.624542
356 1 0.37953 0.496874 0.62296
357 1 0.506391 0.493157 0.624844
358 1 0.618099 0.501102 0.623531
359 1 0.747124 0.494074 0.626044
360 1 0.869527 0.50547 0.625259
361 1 0.996853 0.625485 0.623605
362 1 0.125475 0.622265 0.631199
363 1 0.25263 0.629388 0.623334
364 1 0.37826 0.625583 0.625773
365 1 0.504552 0.619772 0.628536
366 1 0.623678 0.621813 0.623742
367 1 0.74618 0.626717 0.620864
368 1 0.872966 0.627666 0.623663
369 1 1.00096 0.750524 0.622186
370 1 0.123182 0.747393 0.626799
371 1 0.255765 0.744293 0.624416
372 1 0.370263 0.752958 0.631403
373 1 0.49405 0.752513 0.627881
374 1 0.628223 0.744766 0.632962
375 1 0.74239 0.752956 0.623089
376 1 0.875487 0.744395 0.622327
377 1 0.992568 0.873291 0.633277
378 1 0.124486 0.865199 0.629969
379 1 0.248173 0.880253 0.622293
380 1 0.370077 0.87652 0.627522
381 1 0.494445 0.880415 0.629068
382 1 0.618794 0.87833 0.630514
383 1 0.751122 0.869346 0.6275
384 1 0.876451 0.871721 0.62491
385 1 0.997317 -0.000721886 0.747468
386 1 0.122341 0.000185666 0.751719
387 1 0.248078 1.70349e-05 0.757839
388 1 0.374132 -0.00177735 0.752844
389 1 0.501831 -0.00300454 0.749821
390 1 0.627337 0.000393203 0.752317
391 1 0.753823 -0.00331867 0.74757
392 1 0.874211 -0.00321569 0.758961
393 1 0.000801954 0.121315 0.751638
394 1 0.124855 0.123105 0.748903
395 1 0.24613 0.132647 0.753343
396 1 0.379098 0.124961 0.745381
397 1 0.49705 0.132104 0.750249
398 1 0.626843 0.129591 0.750188
399 1 0.751843 0.12318 0.753873
400 1 0.877544 0.127228 0.74963
401 1 -0.00021364 0.247564 0.748635
402 1 0.12464 0.250312 0.749366
403 1 0.24659 0.254647 0.754978
404 1 0.380181 0.25749 0.739579
405 1 0.508805 0.246528 0.749243
406 1 0.630738 0.249574 0.75002
407 1 0.761057 0.24606 0.750851
408 1 0.881322 0.251146 0.74244
409 1 0.99978 0.38011 0.744689
410 1 0.115633 0.386269 0.74743
411 1 0.252086 0.375438 0.751458
412 1 0.38223 0.366547 0.754412
413 1 0.505111 0.36707 0.751227
414 1 0.627942 0.374288 0.747708
415 1 0.755136 0.37234 0.745518
416 1 0.879351 0.379926 0.747416
417 1 0.000245438 0.501914 0.739833
418 1 0.126277 0.497905 0.753357
419 1 0.255985 0.492901 0.74815
420 1 0.381914 0.49601 0.750747
421 1 0.50266 0.498216 0.747386
422 1 0.624301 0.500761 0.750738
423 1 0.744601 0.499939 0.756851
424 1 0.868655 0.499962 0.753919
425 1 1.00082 0.630104 0.743705
426 1 0.123678 0.622448 0.752007
427 1 0.251643 0.616078 0.754321
428 1 0.375517 0.625365 0.75153
429 1 0.502964 0.623862 0.747708
430 1 0.625821 0.621851 0.748066
431 1 0.742798 0.628854 0.748968
432 1 0.869801 0.622862 0.75486
433 1 -0.00447631 0.748837 0.752379
434 1 0.12751 0.745439 0.74792
435 1 0.256056 0.751992 0.746693
436 1 0.377641 0.752121 0.753163
437 1 0.499147 0.745657 0.75848
438 1 0.621401 0.75683 0.751055
439 1 0.743848 0.745686 0.755377
440 1 0.872351 0.742154 0.751372
441 1 0.989088 0.872497 0.754311
442 1 0.122646 0.871733 0.750947
443 1 0.242845 0.872087 0.756056
444 1 0.367641 0.88041 0.752859
445 1 0.497576 0.876237 0.753145
446 1 0.626833 0.876884 0.747261
447 1 0.743016 0.8737 0.757518
448 1 0.873543 0.869458 0.756652
449 1 1.00048 -0.00791159 0.87861
450 1 0.120794 -0.00187053 0.876377
451 1 0.244341 0.00156272 0.879041
452 1 0.376425 -0.000166228 0.870365
453 1 0.508085 -0.000305704 0.87139
454 1 0.626086 0.00229657 0.877305
455 1 0.745312 -0.00205489 0.877727
456 1 0.871839 0.00143973 0.874172
457 1 -0.00231218 0.125701 0.875665
458 1 0.126231 0.125797 0.869672
459 1 0.252205 0.133334 0.868125
460 1 0.37725 0.119353 0.875504
461 1 0.499906 0.130304 0.872072
462 1 0.627501 0.123285 0.878284
463 1 0.755652 0.127606 0.87173
464 1 0.873495 0.126608 0.88122
465 1 1.00188 0.251154 0.868025
466 1 0.12433 0.246341 0.875574
467 1 0.251001 0.249282 0.876207
468 1 0.375544 0.245598 0.874555
469 1 0.496692 0.25167 0.882658
470 1 0.615051 0.257661 0.875149
471 1 0.749083 0.255436 0.876669
472 1 0.874093 0.247659 0.874325
473 1 0.99572 0.376044 0.874925
474 1 0.131462 0.367425 0.877399
475 1 0.252651 0.377045 0.87438
476 1 0.377421 0.370856 0.874829
477 1 0.500139 0.377868 0.872504
478 1 0.62409 0.378762 0.8747
479 1 0.748092 0.379391 0.870913
480 1 0.874843 0.37431 0.875164
481 1 0.996834 0.499316 0.869289
482 1 0.124922 0.49545 0.875764
483 1 0.251737 0.49842 0.874467
484 1 0.37522 0.499811 0.869198
485 1 0.500689 0.501435 0.870397
486 1 0.622663 0.49921 0.878194
487 1 0.752081 0.499795 0.872038
488 1 0.870616 0.499607 0.876073
489 1 -0.00017485 0.61663 0.8738
490 1 0.125751 0.62568 0.867645
491 1 0.252042 0.623696 0.871822
492 1 0.376443 0.622972 0.874889
493 1 0.498771 0.629028 0.877489
494 1 0.626773 0.629926 0.869015
495 1 0.74676 0.621403 0.876797
496 1 0.880035 0.620354 0.871484
497 1 0.99537 0.744297 0.876512
498 1 0.120176 0.756494 0.875112
499 1 0.243174 0.748043 0.880802
500 1 0.374079 0.746392 0.878593
501 1 0.492662 0.753603 0.878369
502 1 0.622207 0.758887 0.876404
503 1 0.752192 0.743363 0.876409
504 1 0.873774 0.74038 0.877552
505 1 0.0037781 0.870993 0.873248
506 1 0.123252 0.874065 0.876655
507 1 0.245173 0.871849 0.880409
508 1 0.36789 0.879181 0.874045
509 1 0.495649 0.875841 0.873522
510 1 0.624468 0.883005 0.871467