ITEM: TIMESTEP
0
ITEM: NUMBER OF ATOMS
512
ITEM: BOX BOUNDS xy xz yz pp pp pp
0.0000000000000000e+00 4.6146935159999998e+01 1.1536733860000000e+01
0.0000000000000000e+00 2.6642945210000001e+01 1.1536733860000000e+01
0.0000000000000000e+00 1.8839407219999998e+01 6.6607362999999999e+00
ITEM: ATOMS id type xs ys zs
1 1 0 0 0
2 1 0.125 0 0
3 1 0.25 0 0
4 1 0.375 0 0
5 1 0.5 0 0
6 1 0.625 0 0
7 1 0.75 0 0
8 1 0.875 0 0
9 1 1 0.125 0
10 1 0.125 0.125 0
11 1 0.25 0.125 0
12 1 0.375 0.125 0
13 1 0.5 0.125 0
14 1 0.625 0.125 0
15 1 0.75 0.125 0
16 1 0.875 0.125 0
17 1 1 0.25 0
18 1 0.125 0.25 0
19 1 0.25 0.25 0
20 1 0.375 0.25 0
21 1 0.5 0.25 0
22 1 0.625 0.25 0
23 1 0.75 0.25 0
24 1 0.875 0.25 0
25 1 1 0.375 0
26 1 0.125 0.375 0
27 1 0.25 0.375 0
28 1 0.375 0.375 0
29 1 0.5 0.375 0
30 1 0.625 0.375 0
31 1 0.75 0.375 0
32 1 0.875 0.375 0
33 1 1 0.5 0
34 1 0.125 0.5 0
35 1 0.25 0.5 0
36 1 0.375 0.5 0
37 1 0.5 0.5 0
38 1 0.625 0.5 0
39 1 0.75 0.5 0
40 1 0.875 0.5 0
41 1 1 0.625 0
42 1 0.125 0.625 0
43 1 0.25 0.625 0
44 1 0.375 0.625 0
45 1 0.5 0.625 0
46 1 0.625 0.625 0
47 1 0.75 0.625 0
48 1 0.875 0.625 0
49 1 1 0.75 0
50 1 0.125 0.75 0
51 1 0.25 0.75 0
52 1 0.375 0.75 0
53 1 0.5 0.75 0
54 1 0.625 0.75 0
55 1 0.75 0.75 0
56 1 0.875 0.75 0
57 1 1 0.875 0
58 1 0.125 0.875 0
59 1 0.25 0.875 0
60 1 0.375 0.875 0
61 1 0.5 0.875 0
62 1 0.625 0.875 0
63 1 0.75 0.875 0
64 1 0.875 0.875 0
65 1 1 5.64696e-10 0.125
66 1 0.125 5.64696e-10 0.125
67 1 0.25 5.64696e-10 0.125
68 1 0.375 5.64696e-10 0.125
69 1 0.5 5.64696e-10 0.125
70 1 0.625 5.64696e-10 0.125
71 1 0.75 5.64696e-10 0.125
72 1 0.875 5.64696e-10 0.125
73 1 1 0.125 0.125
74 1 0.125 0.125 0.125
75 1 0.25 0.125 0.125
76 1 0.375 0.125 0.125
77 1 0.5 0.125 0.125
78 1 0.625 0.125 0.125
79 1 0.75 0.125 0.125
80 1 0.875 0.125 0.125
81 1 1 0.25 0.125
82 1 0.125 0.25 0.125
83 1 0.25 0.25 0.125
84 1 0.375 0.25 0.125
85 1 0.5 0.25 0.125
86 1 0.625 0.25 0.125
87 1 0.75 0.25 0.125
88 1 0.875 0.25 0.125
89 1 1 0.375 0.125
90 1 0.125 0.375 0.125
91 1 0.25 0.375 0.125
92 1 0.375 0.375 0.125
93 1 0.5 0.375 0.125
94 1 0.625 0.375 0.125
95 1 0.75 0.375 0.125
96 1 0.875 0.375 0.125
97 1 1 0.5 0.125
98 1 0.125 0.5 0.125
99 1 0.25 0.5 0.125
100 1 0.375 0.5 0.125
101 1 0.5 0.5 0.125
102 1 0.625 0.5 0.125
103 1 0.75 0.5 0.125
104 1 0.875 0.5 0.125
105 1 1 0.625 0.125
106 1 0.125 0.625 0.125
107 1 0.25 0.625 0.125
108 1 0.375 0.625 0.125
109 1 0.5 0.625 0.125
110 1 0.625 0.625 0.125
111 1 0.75 0.625 0.125
112 1 0.875 0.625 0.125
113 1 1 0.75 0.125
114 1 0.125 0.75 0.125
115 1 0.25 0.75 0.125
116 1 0.375 0.75 0.125
117 1 0.5 0.75 0.125
118 1 0.625 0.75 0.125
119 1 0.75 0.75 0.125
120 1 0.875 0.75 0.125
121 1 1 0.875 0.125
122 1 0.125 0.875 0.125
123 1 0.25 0.875 0.125
124 1 0.375 0.875 0.125
125 1 0.5 0.875 0.125
126 1 0.625 0.875 0.125
127 1 0.75 0.875 0.125
128 1 0.875 0.875 0.125
129 1 1 4.47009e-10 0.25
130 1 0.125 4.47009e-10 0.25
131 1 0.25 4.47009e-10 0.25
132 1 0.375 4.47009e-10 0.25
133 1 0.5 4.47009e-10 0.25
134 1 0.625 4.47009e-10 0.25
135 1 0.75 4.47009e-10 0.25
136 1 0.875 4.47009e-10 0.25
137 1 1 0.125 0.25
138 1 0.125 0.125 0.25
139 1 0.25 0.125 0.25
140 1 0.375 0.125 0.25
141 1 0.5 0.125 0.25
142 1 0.625 0.125 0.25
143 1 0.75 0.125 0.25
144 1 0.875 0.125 0.25
145 1 1 0.25 0.25
146 1 0.125 0.25 0.25
147 1 0.25 0.25 0.25
148 1 0.375 0.25 0.25
149 1 0.5 0.25 0.25
150 1 0.625 0.25 0.25
151 1 0.75 0.25 0.25
152 1 0.875 0.25 0.25
153 1 1 0.375 0.25
154 1 0.125 0.375 0.25
155 1 0.25 0.375 0.25
156 1 0.375 0.375 0.25
157 1 0.5 0.375 0.25
158 1 0.625 0.375 0.25
159 1 0.75 0.375 0.25
160 1 0.875 0.375 0.25
161 1 1 0.5 0.25
162 1 0.125 0.5 0.25
163 1 0.25 0.5 0.25
164 1 0.375 0.5 0.25
165 1 0.5 0.5 0.25
166 1 0.625 0.5 0.25
167 1 0.75 0.5 0.25
168 1 0.875 0.5 0.25
169 1 1 0.625 0.25
170 1 0.125 0.625 0.25
171 1 0.25 0.625 0.25
172 1 0.375 0.625 0.25
173 1 0.5 0.625 0.25
174 1 0.625 0.625 0.25
175 1 0.75 0.625 0.25
176 1 0.875 0.625 0.25
177 1 1 0.75 0.25
178 1 0.125 0.75 0.25
179 1 0.25 0.75 0.25
180 1 0.375 0.75 0.25
181 1 0.5 0.75 0.25
182 1 0.625 0.75 0.25
183 1 0.75 0.75 0.25
184 1 0.875 0.75 0.25
185 1 1 0.875 0.25
186 1 0.125 0.875 0.25
187 1 0.25 0.875 0.25
188 1 0.375 0.875 0.25
189 1 0.5 0.875 0.25
190 1 0.625 0.875 0.25
191 1 0.75 0.875 0.25
192 1 0.875 0.875 0.25
193 1 1 5.11261e-10 0.375
194 1 0.125 5.11261e-10 0.375
195 1 0.25 5.11261e-10 0.375
196 1 0.375 5.11261e-10 0.375
197 1 0.5 5.11261e-10 0.375
198 1 0.625 5.11261e-10 0.375
199 1 0.75 5.11261e-10 0.375
200 1 0.875 5.11261e-10 0.375
201 1 1 0.125 0.375
202 1 0.125 0.125 0.375
203 1 0.25 0.125 0.375
204 1 0.375 0.125 0.375
205 1 0.5 0.125 0.375
206 1 0.625 0.125 0.375
207 1 0.75 0.125 0.375
208 1 0.875 0.125 0.375
209 1 1 0.25 0.375
210 1 0.125 0.25 0.375
211 1 0.25 0.25 0.375
212 1 0.375 0.25 0.375
213 1 0.5 0.25 0.375
214 1 0.625 0.25 0.375
215 1 0.75 0.25 0.375
216 1 0.875 0.25 0.375
217 1 1 0.375 0.375
218 1 0.125 0.375 0.375
219 1 0.25 0.375 0.375
220 1 0.375 0.375 0.375
221 1 0.5 0.375 0.375
222 1 0.625 0.375 0.375
223 1 0.75 0.375 0.375
224 1 0.875 0.375 0.375
225 1 1 0.5 0.375
226 1 0.125 0.5 0.375
227 1 0.25 0.5 0.375
228 1 0.375 0.5 0.375
229 1 0.5 0.5 0.375
230 1 0.625 0.5 0.375
231 1 0.75 0.5 0.375
232 1 0.875 0.5 0.375
233 1 1 0.625 0.375
234 1 0.125 0.625 0.375
235 1 0.25 0.625 0.375
236 1 0.375 0.625 0.375
237 1 0.5 0.625 0.375
238 1 0.625 0.625 0.375
239 1 0.75 0.625 0.375
240 1 0.875 0.625 0.375
241 1 1 0.75 0.375
242 1 0.125 0.75 0.375
243 1 0.25 0.75 0.375
244 1 0.375 0.75 0.375
245 1 0.5 0.75 0.375
246 1 0.625 0.75 0.375
247 1 0.75 0.75 0.375
248 1 0.875 0.75 0.375
249 1 1 0.875 0.375
250 1 0.125 0.875 0.375
251 1 0.25 0.875 0.375
252 1 0.375 0.875 0.375
253 1 0.5 0.875 0.375
254 1 0.625 0.875 0.375
255 1 0.75 0.875 0.375
256 1 0.875 0.875 0.375
257 1 1 7.00624e-11 0.5
258 1 0.125 7.00624e-11 0.5
259 1 0.25 7.00624e-11 0.5
260 1 0.375 7.00624e-11 0.5
261 1 0.5 7.00624e-11 0.5
262 1 0.625 7.00624e-11 0.5
263 1 0.75 7.00624e-11 0.5
264 1 0.875 7.00624e-11 0.5
265 1 1 0.125 0.5
266 1 0.125 0.125 0.5
267 1 0.25 0.125 0.5
268 1 0.375 0.125 0.5
269 1 0.5 0.125 0.5
270 1 0.625 0.125 0.5
271 1 0.75 0.125 0.5
272 1 0.875 0.125 0.5
273 1 1 0.25 0.5
274 1 0.125 0.25 0.5
275 1 0.25 0.25 0.5
276 1 0.375 0.25 0.5
277 1 0.5 0.25 0.5
278 1 0.625 0.25 0.5
279 1 0.75 0.25 0.5
280 1 0.875 0.25 0.5
281 1 1 0.375 0.5
282 1 0.125 0.375 0.5
283 1 0.25 0.375 0.5
284 1 0.375 0.375 0.5
285 1 0.5 0.375 0.5
286 1 0.625 0.375 0.5
287 1 0.75 0.375 0.5
288 1 0.875 0.375 0.5
289 1 1 0.5 0.5
290 1 0.125 0.5 0.5
291 1 0.25 0.5 0.5
292 1 0.375 0.5 0.5
293 1 0.5 0.5 0.5
294 1 0.625 0.5 0.5
295 1 0.75 0.5 0.5
296 1 0.875 0.5 0.5
297 1 1 0.625 0.5
298 1 0.125 0.625 0.5
299 1 0.25 0.625 0.5
300 1 0.375 0.625 0.5
301 1 0.5 0.625 0.5
302 1 0.625 0.625 0.5
303 1 0.75 0.625 0.5
304 1 0.875 0.625 0.5
305 1 1 0.75 0.5
306 1 0.125 0.75 0.5
307 1 0.25 0.75 0.5
308 1 0.375 0.75 0.5
309 1 0.5 0.75 0.5
310 1 0.625 0.75 0.5
311 1 0.75 0.75 0.5
312 1 0.875 0.75 0.5
313 1 1 0.875 0.5
314 1 0.125 0.875 0.5
315 1 0.25 0.875 0.5
316 1 0.375 0.875 0.5
317 1 0.5 0.875 0.5
318 1 0.625 0.875 0.5
319 1 0.75 0.875 0.5
320 1 0.875 0.875 0.5
321 1 1 7.81336e-10 0.625
322 1 0.125 7.81336e-10 0.625
323 1 0.25 7.81336e-10 0.625
324 1 0.375 7.81336e-10 0.625
325 1 0.5 7.81336e-10 0.625
326 1 0.625 7.81336e-10 0.625
327 1 0.75 7.81336e-10 0.625
328 1 0.875 7.81336e-10 0.625
329 1 1 0.125 0.625
330 1 0.125 0.125 0.625
331 1 0.25 0.125 0.625
332 1 0.375 0.125 0.625
333 1 0.5 0.125 0.625
334 1 0.625 0.125 0.625
335 1 0.75 0.125 0.625
336 1 0.875 0.125 0.625
337 1 1 0.25 0.625
338 1 0.125 0.25 0.625
339 1 0.25 0.25 0.625
340 1 0.375 0.25 0.625
341 1 0.5 0.25 0.625
342 1 0.625 0.25 0.625
343 1 0.75 0.25 0.625
344 1 0.875 0.25 0.625
345 1 1 0.375 0.625
346 1 0.125 0.375 0.625
347 1 0.25 0.375 0.625
348 1 0.375 0.375 0.625
349 1 0.5 0.375 0.625
350 1 0.625 0.375 0.625
351 1 0.75 0.375 0.625
352 1 0.875 0.375 0.625
353 1 1 0.5 0.625
354 1 0.125 0.5 0.625
355 1 0.25 0.5 0.625
356 1 0.375 0.5 0.625
357 1 0.5 0.5 0.625
358 1 0.625 0.5 0.625
359 1 0.75 0.5 0.625
360 1 0.875 0.5 0.625
361 1 1 0.625 0.625
362 1 0.125 0.625 0.625
363 1 0.25 0.625 0.625
364 1 0.375 0.625 0.625
365 1 0.5 0.625 0.625
366 1 0.625 0.625 0.625
367 1 0.75 0.625 0.625
368 1 0.875 0.625 0.625
369 1 1 0.75 0.625
370 1 0.125 0.75 0.625
371 1 0.25 0.75 0.625
372 1 0.375 0.75 0.625
373 1 0.5 0.75 0.625
374 1 0.625 0.75 0.625
375 1 0.75 0.75 0.625
376 1 0.875 0.75 0.625
377 1 1 0.875 0.625
378 1 0.125 0.875 0.625
379 1 0.25 0.875 0.625
380 1 0.375 0.875 0.625
381 1 0.5 0.875 0.625
382 1 0.625 0.875 0.625
383 1 0.75 0.875 0.625
384 1 0.875 0.875 0.625
385 1 1 3.40138e-10 0.75
386 1 0.125 3.40138e-10 0.75
387 1 0.25 3.40138e-10 0.75
388 1 0.375 3.40138e-10 0.75
389 1 0.5 3.40138e-10 0.75
390 1 0.625 3.40138e-10 0.75
391 1 0.75 3.40138e-10 0.75
392 1 0.875 3.40138e-10 0.75
393 1 1 0.125 0.75
394 1 0.125 0.125 0.75
395 1 0.25 0.125 0.75
396 1 0.375 0.125 0.75
397 1 0.5 0.125 0.75
398 1 0.625 0.125 0.75
399 1 0.75 0.125 0.75
400 1 0.875 0.125 0.75
401 1 1 0.25 0.75
402 1 0.125 0.25 0.75
403 1 0.25 0.25 0.75
404 1 0.375 0.25 0.75
405 1 0.5 0.25 0.75
406 1 0.625 0.25 0.75
407 1 0.75 0.25 0.75
408 1 0.875 0.25 0.75
409 1 1 0.375 0.75
410 1 0.125 0.375 0.75
411 1 0.25 0.375 0.75
412 1 0.375 0.375 0.75
413 1 0.5 0.375 0.75
414 1 0.625 0.375 0.75
415 1 0.75 0.375 0.75
416 1 0.875 0.375 0.75
417 1 1 0.5 0.75
418 1 0.125 0.5 0.75
419 1 0.25 0.5 0.75
420 1 0.375 0.5 0.75
421 1 0.5 0.5 0.75
422 1 0.625 0.5 0.75
423 1 0.75 0.5 0.75
424 1 0.875 0.5 0.75
425 1 1 0.625 0.75
426 1 0.125 0.625 0.75
427 1 0.25 0.625 0.75
428 1 0.375 0.625 0.75
429 1 0.5 0.625 0.75
430 1 0.625 0.625 0.75
431 1 0.75 0.625 0.75
432 1 0.875 0.625 0.75
433 1 1 0.75 0.75
434 1 0.125 0.75 0.75
435 1 0.25 0.75 0.75
436 1 0.375 0.75 0.75
437 1 0.5 0.75 0.75
438 1 0.625 0.75 0.75
439 1 0.75 0.75 0.75
440 1 0.875 0.75 0.75
441 1 1 0.875 0.75
442 1 0.125 0.875 0.75
443 1 0.25 0.875 0.75
444 1 0.375 0.875 0.75
445 1 0.5 0.875 0.75
446 1 0.625 0.875 0.75
447 1 0.75 0.875 0.75
448 1 0.875 0.875 0.75
449 1 1 4.04389e-10 0.875
450 1 0.125 4.04389e-10 0.875
451 1 0.25 4.04389e-10 0.875
452 1 0.375 4.04389e-10 0.875
453 1 0.5 4.04389e-10 0.875
454 1 0.625 4.04389e-10 0.875
455 1 0.75 4.04389e-10 0.875
456 1 0.875 4.04389e-10 0.875
457 1 1 0.125 0.875
458 1 0.125 0.125 0.875
459 1 0.25 0.125 0.875
460 1 0.375 0.125 0.875
461 1 0.5 0.125 0.875
462 1 0.625 0.125 0.875
463 1 0.75 0.125 0.875
464 1 0.875 0.125 0.875
465 1 1 0.25 0.875
466 1 0.125 0.25 0.875
467 1 0.25 0.25 0.875
468 1 0.375 0.25 0.875
469 1 0.5 0.25 0.875
470 1 0.625 0.25 0.875
471 1 0.75 0.25 0.875
472 1 0.875 0.25 0.875
473 1 1 0.375 0.875
474 1 0.125 0.375 0.875
475 1 0.25 0.375 0.875
476 1 0.375 0.375 0.875
477 1 0.5 0.375 0.875
478 1 0.625 0.375 0.875
479 1 0.75 0.375 0.875
480 1 0.875 0.375 0.875
481 1 1 0.5 0.875
482 1 0.125 0.5 0.875
483 1 0.25 0.5 0.875
484 1 0.375 0.5 0.875
485 1 0.5 0.5 0.875
486 1 0.625 0.5 0.875
487 1 0.75 0.5 0.875
488 1 0.875 0.5 0.875
489 1 1 0.625 0.875
490 1 0.125 0.625 0.875
491 1 0.25 0.625 0.875
492 1 0.375 0.625 0.875
493 1 0.5 0.625 0.875
494 1 0.625 0.625 0.875
495 1 0.75 0.625 0.875
496 1 0.875 0.625 0.875
497 1 1 0.75 0.875
498 1 0.125 0.75 0.875
499 1 0.25 0.75 0.875
500 1 0.375 0.75 0.875
501 1 0.5 0.75 0.875
502 1 0.625 0.75 0.875
503 1 0.75 0.75 0.875
504 1 0.875 0.75 0.875
505 1 1 0.875 0.875
506 1 0.125 0.875 0.875
507 1 0.25 0.875 0.875
508 1 0.375 0.875 0.875
509 1 0.5 0.875 0.875
510 1 0.625 0.875 0.875
511 1 0.75 0.875 0.875
512 1 0.875 0.875 0.875
ITEM: TIMESTEP
50000
ITEM: NUMBER OF ATOMS
512
ITEM: BOX BOUNDS xy xz yz pp pp pp
-2.2143801882720027e-02 4.6213366566186195e+01 1.1558877662151575e+01
-1.9177094922524063e-02 2.6674907034864432e+01 1.1558877662151575e+01
-1.8080338473705382e-02 1.8857487558474116e+01 6.6735210299419467e+00
ITEM: ATOMS id type xs ys zs
1 1 -0.00109715 -0.00534268 -0.00260952
2 1 0.127678 -0.00264145 0.0021826
3 1 0.257655 -0.00748013 0.00445769
4 1 0.385342 0.00136561 -0.0147062
5 1 0.497855 0.00376201 -0.000607761
6 1 0.624693 -0.00686957 0.00129825
7 1 0.748071 -0.00329245 0.00312155
8 1 0.869113 0.00158079 0.00330796
9 1 1.00115 0.12918 0.00250007
10 1 0.129091 0.124286 0.00210192
11 1 0.245533 0.120813 0.00823894
12 1 0.373856 0.128813 -0.00204655
13 1 0.502935 0.128891 -0.000130706
14 1 0.625462 0.130709 -0.0035881
15 1 0.744842 0.131807 0.000460567
16 1 0.879534 0.120399 0.00472094
17 1 1.00081 0.24706 0.00331868
18 1 0.126332 0.245909 0.00327275
19 1 0.248893 0.251259 -6.1819e-05
20 1 0.370621 0.254811 -0.00274128
21 1 0.498527 0.255803 0.000850928
22 1 0.625384 0.25281 -0.00272481
23 1 0.757281 0.242833 0.000485952
24 1 0.875 0.240525 0.00583919
25 1 1.00634 0.369813 -0.00621018
26 1 0.125718 0.372192 0.000580259
27 1 0.2483 0.370862 0.00298022
28 1 0.375975 0.382001 -0.0142764
29 1 0.494175 0.378966 0.00230409
30 1 0.620203 0.373822 0.0037309
31 1 0.749447 0.365721 0.001501
32 1 0.872182 0.377104 -0.000294553
33 1 0.996106 0.500709 -0.00299166
34 1 0.130655 0.498185 -0.00447051
35 1 0.256225 0.498852 -0.00610192
36 1 0.375897 0.496251 -0.000583915
37 1 0.501194 0.498851 -0.00293376
38 1 0.618898 0.497059 0.00803886
39 1 0.739432 0.500141 0.0045714
40 1 0.871188 0.500735 0.00201555
41 1 0.995718 0.626693 -0.00406432
42 1 0.123723 0.623963 -0.00105598
43 1 0.245017 0.623519 0.00790276
44 1 0.37451 0.623514 -0.00816414
45 1 0.492956 0.626579 0.00461622
46 1 0.617377 0.620582 0.00652897
47 1 0.743039 0.621477 0.0049814
48 1 0.871879 0.623285 0.00187247
49 1 0.994486 0.745814 0.00190569
50 1 0.118424 0.748387 0.00201414
51 1 0.253031 0.743476 -0.00292431
52 1 0.376229 0.747214 -7.58166e-05
53 1 0.494726 0.752764 0.00484246
54 1 0.621725 0.752344 -0.00225144
55 1 0.747999 0.745058 0.00620332
56 1 0.879146 0.744188 -0.00297884
57 1 0.995874 0.873348 0.00155456
58 1 0.129311 0.869261 -0.00267949
59 1 0.246015 0.871625 -0.00137224
60 1 0.374635 0.871405 -0.0018126
61 1 0.503301 0.883005 -0.00259528
62 1 0.625759 0.869965 0.00175746
63 1 0.750327 0.870243 0.00399572
64 1 0.870183 0.871454 0.00855126
65 1 0.998237 0.0084626 0.121756
66 1 0.131699 0.0022998 0.116997
67 1 0.256879 -0.00664477 0.12295
68 1 0.380406 -0.00605704 0.126384
69 1 0.496083 0.000763786 0.126571
70 1 0.626018 0.00352912 0.118834
71 1 0.748264 0.000289212 0.121766
72 1 0.873989 -0.00528496 0.133438
73 1 0.996937 0.125414 0.12865
74 1 0.127278 0.122569 0.127331
75 1 0.251357 0.128502 0.122172
76 1 0.368364 0.122383 0.12832
77 1 0.498103 0.125382 0.122877
78 1 0.625125 0.129259 0.124644
79 1 0.752246 0.115876 0.129457
80 1 0.872183 0.128035 0.129117
81 1 0.991061 0.254637 0.129233
82 1 0.123411 0.249631 0.1262
83 1 0.248755 0.249497 0.123267
84 1 0.373584 0.252347 0.117774
85 1 0.502378 0.253905 0.122916
86 1 0.631761 0.245838 0.124458
87 1 0.752261 0.248567 0.128239
88 1 0.871324 0.254923 0.123359
89 1 0.999016 0.368354 0.123301
90 1 0.12141 0.378263 0.121524
91 1 0.244807 0.370896 0.136163
92 1 0.369247 0.371372 0.120352
93 1 0.490282 0.378518 0.123923
94 1 0.615669 0.369544 0.130273
95 1 0.751753 0.369535 0.127127
96 1 0.870949 0.371716 0.126759
97 1 0.995521 0.502305 0.124739
98 1 0.12523 0.500812 0.115359
99 1 0.241592 0.501061 0.122965
100 1 0.376383 0.497784 0.12098
101 1 0.500886 0.501811 0.124401
102 1 0.628003 0.494441 0.128794
103 1 0.750229 0.494298 0.127309
104 1 0.876047 0.497933 0.123647
105 1 0.998696 0.624264 0.128572
106 1 0.125183 0.623736 0.128125
107 1 0.248538 0.627415 0.124219
108 1 0.374656 0.623261 0.124605
109 1 0.497772 0.623858 0.127049
110 1 0.619292 0.622697 0.130933
111 1 0.74618 0.623025 0.133003
112 1 0.874102 0.622489 0.123892
113 1 0.996646 0.752004 0.122507
114 1 0.121255 0.747759 0.127277
115 1 0.252882 0.744787 0.128204
116 1 0.375099 0.747164 0.128771
117 1 0.500434 0.753604 0.119458
118 1 0.618267 0.745119 0.128096
119 1 0.744611 0.759978 0.124253
120 1 0.867026 0.74432 0.133388
121 1 0.997926 0.873261 0.128295
122 1 0.126442 0.875326 0.120379
123 1 0.246216 0.871638 0.123463
124 1 0.374762 0.8714 0.126449
125 1 0.504613 0.872685 0.125484
126 1 0.621397 0.880466 0.13017
127 1 0.751373 0.876392 0.128862
128 1 0.876667 0.87294 0.122296
129 1 1.00754 0.00462403 0.247916
130 1 0.13019 -0.00300845 0.254392
131 1 0.250947 0.000552109 0.250597
132 1 0.372584 -1.88286e-05 0.249139
133 1 0.502217 -0.00617025 0.248339
134 1 0.628662 -0.00877573 0.246339
135 1 0.748636 -0.00968026 0.257512
136 1 0.876166 0.00132792 0.252052
137 1 0.996995 0.129935 0.255534
138 1 0.121275 0.125187 0.2541
139 1 0.245237 0.129628 0.253218
140 1 0.369502 0.12612 0.245608
141 1 0.501211 0.120204 0.244916
142 1 0.616348 0.127507 0.252923
143 1 0.752579 0.123676 0.255051
144 1 0.88069 0.123912 0.252852
145 1 0.992543 0.25398 0.253928
146 1 0.119082 0.244758 0.252003
147 1 0.24923 0.245366 0.252918
148 1 0.377799 0.246763 0.245026
149 1 0.496317 0.247148 0.24903
150 1 0.625663 0.243711 0.253155
151 1 0.754907 0.247384 0.248429
152 1 0.873845 0.246934 0.257813
153 1 1.00285 0.374245 0.250189
154 1 0.124605 0.368102 0.256424
155 1 0.255243 0.373137 0.250929
156 1 0.371674 0.381069 0.24646
157 1 0.49609 0.380727 0.251517
158 1 0.626379 0.364372 0.247917
159 1 0.752891 0.374085 0.248166
160 1 0.877784 0.380644 0.25218
161 1 1.00929 0.497825 0.245896
162 1 0.134232 0.491633 0.249537
163 1 0.2535 0.505646 0.242518
164 1 0.366963 0.505794 0.247295
165 1 0.503202 0.49852 0.247509
166 1 0.625396 0.490685 0.250776
167 1 0.754661 0.493302 0.252517
168 1 0.871907 0.505423 0.248208
169 1 1.00182 0.623088 0.250326
170 1 0.124038 0.615006 0.255168
171 1 0.240354 0.629497 0.251242
172 1 0.37472 0.620409 0.251937
173 1 0.495091 0.61964 0.257235
174 1 0.626676 0.620444 0.252722
175 1 0.743868 0.62778 0.251569
176 1 0.879809 0.62405 0.249945
177 1 0.99631 0.750685 0.248975
178 1 0.125042 0.754747 0.253401
179 1 0.253331 0.75653 0.24763
180 1 0.371684 0.749005 0.251448
181 1 0.491528 0.751624 0.249666
182 1 0.619508 0.753545 0.239488
183 1 0.744321 0.749368 0.255987
184 1 0.875579 0.744473 0.250532
185 1 0.996625 0.875493 0.252182
186 1 0.117945 0.882909 0.248246
187 1 0.246708 0.880259 0.246322
188 1 0.372477 0.871827 0.248278
189 1 0.498181 0.873541 0.249763
190 1 0.626937 0.873327 0.246822
191 1 0.751896 0.875476 0.250153
192 1 0.880437 0.878427 0.245875
193 1 1.0009 2.03039e-05 0.375794
194 1 0.120308 -0.00150929 0.38218
195 1 0.246779 0.00141995 0.377246
196 1 0.374244 -0.0022285 0.37942
197 1 0.497837 0.00765752 0.374777
198 1 0.630675 0.0012663 0.368365
199 1 0.754857 0.000739899 0.373528
200 1 0.875755 0.00347045 0.374148
201 1 0.997914 0.126727 0.376979
202 1 0.1258 0.124023 0.378252
203 1 0.254614 0.124075 0.379824
204 1 0.385504 0.125491 0.366875
205 1 0.503325 0.124337 0.380427
206 1 0.631583 0.123737 0.376165
207 1 0.751345 0.121568 0.379638
208 1 0.874412 0.129351 0.375493
209 1 0.996744 0.246297 0.382296
210 1 0.129717 0.244819 0.380577
211 1 0.252089 0.244789 0.379157
212 1 0.375198 0.25398 0.36472
213 1 0.49888 0.253591 0.368501
214 1 0.632629 0.248609 0.369114
215 1 0.750469 0.244097 0.379572
216 1 0.87729 0.249186 0.380422
217 1 1.00576 0.365747 0.38292
218 1 0.139015 0.36949 0.372235
219 1 0.255818 0.374175 0.37525
220 1 0.381411 0.371244 0.374879
221 1 0.508089 0.37491 0.368779
222 1 0.633731 0.374723 0.373093
223 1 0.75696 0.37496 0.372146
224 1 0.878824 0.373496 0.374772
225 1 1.01203 0.496114 0.371635
226 1 0.129974 0.500778 0.367631
227 1 0.251969 0.497437 0.3753
228 1 0.375546 0.501105 0.370374
229 1 0.505122 0.494157 0.375389
230 1 0.625173 0.501362 0.374606
231 1 0.747247 0.501053 0.379256
232 1 0.88295 0.494568 0.372829
233 1 0.992899 0.627041 0.37755
234 1 0.125053 0.624781 0.37421
235 1 0.241607 0.627386 0.376363
236 1 0.371276 0.625606 0.383734
237 1 0.49812 0.629335 0.374311
238 1 0.622828 0.62854 0.372075
239 1 0.758353 0.622147 0.369064
240 1 0.874854 0.626182 0.370884
241 1 0.998084 0.744689 0.372398
242 1 0.126557 0.746376 0.375846
243 1 0.251059 0.752558 0.376834
244 1 0.376464 0.757618 0.373566
245 1 0.49837 0.754705 0.369836
246 1 0.626957 0.749124 0.376084
247 1 0.750111 0.749044 0.376603
248 1 0.872544 0.747236 0.380821
249 1 1.00039 0.877888 0.376914
250 1 0.129736 0.87043 0.373353
251 1 0.246192 0.878868 0.376077
252 1 0.374721 0.881518 0.37273
253 1 0.493588 0.88052 0.372704
254 1 0.621717 0.879317 0.374816
255 1 0.750301 0.874679 0.382476
256 1 0.877427 0.872879 0.373982
257 1 0.999595 0.000358192 0.503051
258 1 0.130353 -0.00414323 0.498407
259 1 0.260649 -0.000124518 0.500727
260 1 0.383029 0.00305396 0.496072
261 1 0.508512 -0.00206901 0.499648
262 1 0.633431 0.00558808 0.496222
263 1 0.755538 -0.00428218 0.502785
264 1 0.874436 0.00124565 0.500343
265 1 1.00113 0.115371 0.511785
266 1 0.12975 0.115421 0.507822
267 1 0.25345 0.128232 0.499394
268 1 0.377531 0.12597 0.499213
269 1 0.500666 0.122244 0.503762
270 1 0.62603 0.127792 0.501301
271 1 0.748013 0.12986 0.499309
272 1 0.872595 0.126849 0.50135
273 1 1.00204 0.246912 0.503796
274 1 0.131759 0.248674 0.49969
275 1 0.25575 0.249481 0.497612
276 1 0.379739 0.24948 0.493551
277 1 0.505472 0.255947 0.491602
278 1 0.626323 0.249476 0.498081
279 1 0.749015 0.250574 0.50351
280 1 0.877162 0.245855 0.507611
281 1 1.00488 0.374587 0.499647
282 1 0.131492 0.371526 0.498404
283 1 0.255897 0.37961 0.499696
284 1 0.384213 0.375277 0.495712
285 1 0.499205 0.374252 0.502378
286 1 0.624395 0.377387 0.500019
287 1 0.754067 0.381212 0.495663
288 1 0.878855 0.378585 0.500007
289 1 1.00123 0.500054 0.49258
290 1 0.11931 0.498986 0.499975
291 1 0.248814 0.497801 0.504112
292 1 0.375295 0.496757 0.499148
293 1 0.498617 0.503705 0.497172
294 1 0.622135 0.501071 0.498159
295 1 0.752562 0.497287 0.49866
296 1 0.878963 0.501749 0.494283
297 1 1.00346 0.621533 0.497926
298 1 0.114789 0.62493 0.500753
299 1 0.239559 0.628246 0.504697
300 1 0.376013 0.621857 0.513411
301 1 0.500529 0.62503 0.504163
302 1 0.625619 0.629718 0.494754
303 1 0.752898 0.627696 0.491266
304 1 0.872208 0.629002 0.500023
305 1 1.00052 0.750182 0.498573
306 1 0.119193 0.754682 0.503787
307 1 0.25122 0.752491 0.500358
308 1 0.380813 0.75216 0.496569
309 1 0.497551 0.754242 0.494271
310 1 0.632581 0.754525 0.494789
311 1 0.755181 0.754013 0.498147
312 1 0.878731 0.752764 0.501152
313 1 0.998568 0.875657 0.500822
314 1 0.125253 0.868299 0.496566
315 1 0.251565 0.876748 0.496417
316 1 0.378425 0.874974 0.501178
317 1 0.503125 0.879967 0.494176
318 1 0.630478 0.881002 0.498455
319 1 0.758585 0.876245 0.498486
320 1 0.877718 0.875013 0.497262
321 1 1.00282 -0.00252126 0.632236
322 1 0.132617 -0.00564314 0.628931
323 1 0.259913 -0.00146105 0.622468
324 1 0.373504 0.00810748 0.624722
325 1 0.501069 0.00291028 0.622267
326 1 0.630863 0.000311542 0.622964
327 1 0.756564 0.00353579 0.619438
328 1 0.872402 0.0106432 0.626152
329 1 0.996712 0.128819 0.629476
330 1 0.131764 0.122719 0.627569
331 1 0.247014 0.129928 0.631721
332 1 0.374651 0.128512 0.625527
333 1 0.50053 0.125282 0.625899
334 1 0.626904 0.128886 0.621597
335 1 0.752405 0.127368 0.623781
336 1 0.869943 0.130908 0.62916
337 1 0.999234 0.250119 0.622803
338 1 0.127432 0.250196 0.62029
339 1 0.249776 0.250132 0.623983
340 1 0.373368 0.251938 0.616802
341 1 0.499748 0.245992 0.623192
342 1 0.62821 0.251299 0.628851
343 1 0.749415 0.257394 0.622805
344 1 0.871358 0.249581 0.631614
345 1 0.991912 0.376867 0.62942
346 1 0.132019 0.373446 0.621093
347 1 0.253673 0.373396 0.622898
348 1 0.376758 0.3686 0.626455
349 1 0.502431 0.372172 0.622339
350 1 0.628839 0.376908 0.623247
351 1 0.748625 0.380833 0.619333
352 1 0.871582 0.376392 0.626058
353 1 0.995995 0.506532 0.616258
354 1 0.125278 0.497227 0.623975
355 1 0.255386 0.50427 0.619737
356 1 0.379166 0.4976 0.61937
357 1 0.508317 0.49934 0.619861
358 1 0.628496 0.500355 0.624885
359 1 0.746833 0.507262 0.623696
360 1 0.871425 0.504135 0.621411
361 1 0.990858 0.626509 0.627688
362 1 0.117693 0.625247 0.62269
363 1 0.249141 0.627676 0.622522
364 1 0.381072 0.616899 0.631144
365 1 0.49969 0.628006 0.622703
366 1 0.620068 0.629263 0.621008
367 1 0.751918 0.627357 0.619859
368 1 0.871826 0.625293 0.62661
369 1 0.998618 0.750058 0.625697
370 1 0.127733 0.74388 0.623811
371 1 0.247208 0.746702 0.628061
372 1 0.375348 0.74421 0.625852
373 1 0.49689 0.75937 0.614876
374 1 0.618117 0.756404 0.628583
375 1 0.750162 0.757274 0.619871
376 1 0.868118 0.757046 0.62322
377 1 0.991911 0.879508 0.622917
378 1 0.128658 0.870185 0.623191
379 1 0.250931 0.867809 0.628531
380 1 0.372815 0.879219 0.617598
381 1 0.497965 0.877787 0.627585
382 1 0.62187 0.882366 0.627654
383 1 0.74953 0.878684 0.627414
384 1 0.87225 0.871834 0.628543
385 1 0.998096 -0.0072199 0.755301
386 1 0.122975 -0.000688737 0.75196
387 1 0.247296 0.00566651 0.747733
388 1 0.377032 0.00256814 0.749279
389 1 0.5047 0.00356188 0.749216
390 1 0.631819 0.00591449 0.744443
391 1 0.753298 0.00564845 0.751883
392 1 0.879611 -0.00397753 0.748723
393 1 1.00086 0.120327 0.753982
394 1 0.122149 0.129971 0.751523
395 1 0.253077 0.118793 0.759542
396 1 0.373174 0.128669 0.749651
397 1 0.502074 0.123912 0.751636
398 1 0.627556 0.124342 0.753934
399 1 0.751844 0.126383 0.754816
400 1 0.877654 0.115549 0.754884
401 1 0.991006 0.254967 0.754086
402 1 0.118771 0.252479 0.743396
403 1 0.249629 0.247667 0.747217
404 1 0.374876 0.248953 0.749212
405 1 0.498283 0.246774 0.750661
406 1 0.626544 0.248371 0.750025
407 1 0.746402 0.246047 0.760297
408 1 0.873214 0.25003 0.755269
409 1 1.00069 0.378187 0.744499
410 1 0.12553 0.37384 0.751299
411 1 0.251989 0.376039 0.750772
412 1 0.376691 0.369945 0.749605
413 1 0.50529 0.37211 0.744307
414 1 0.625304 0.373418 0.748634
415 1 0.746316 0.375356 0.747833
416 1 0.870501 0.376416 0.75076
417 1 1.00276 0.500068 0.745621
418 1 0.126665 0.497293 0.751158
419 1 0.25477 0.494136 0.74999
420 1 0.385892 0.490936 0.74261
421 1 0.498337 0.500337 0.748605
422 1 0.624792 0.498549 0.754152
423 1 0.750682 0.506255 0.750113
424 1 0.870666 0.509073 0.743603
425 1 1.00073 0.619571 0.753677
426 1 0.135026 0.618354 0.749541
427 1 0.252796 0.619769 0.752863
428 1 0.37897 0.623534 0.748927
429 1 0.496202 0.631023 0.744907
430 1 0.622783 0.634176 0.744476
431 1 0.744749 0.630617 0.751379
432 1 0.874311 0.628285 0.744397
433 1 0.999684 0.747989 0.746488
434 1 0.1226 0.749435 0.746562
435 1 0.253834 0.746017 0.749882
436 1 0.370383 0.756408 0.746271
437 1 0.496534 0.750978 0.748586
438 1 0.621568 0.75686 0.75082
439 1 0.747359 0.750724 0.747495
440 1 0.87947 0.750762 0.741458
441 1 0.999618 0.869652 0.753643
442 1 0.125811 0.863144 0.753305
443 1 0.242432 0.878178 0.747903
444 1 0.374852 0.883116 0.747121
445 1 0.500437 0.880213 0.743622
446 1 0.624644 0.870693 0.754275
447 1 0.745705 0.877354 0.749264
448 1 0.865035 0.870214 0.757964
449 1 1.00353 -0.00578392 0.877557
450 1 0.130058 -0.000706559 0.872581
451 1 0.247683 -0.0011081 0.878358
452 1 0.374851 -0.0011802 0.870092
453 1 0.508833 0.00390128 0.869428
454 1 0.624226 -0.000723515 0.879397
455 1 0.748645 0.000846208 0.879422
456 1 0.876557 -0.0063886 0.884491
457 1 0.994297 0.131958 0.873442
458 1 0.124438 0.124469 0.877765
459 1 0.248579 0.122625 0.883759
460 1 0.37013 0.132635 0.870767
461 1 0.504367 0.124765 0.875596
462 1 0.623922 0.132166 0.873567
463 1 0.74533 0.121357 0.883094
464 1 0.868548 0.12417 0.883831
465 1 0.999967 0.253905 0.87646
466 1 0.126919 0.250023 0.874956
467 1 0.250245 0.256617 0.868761
468 1 0.381242 0.247215 0.872884
469 1 0.500617 0.250865 0.875316
470 1 0.619469 0.254954 0.873289
471 1 0.743496 0.254103 0.87607
472 1 0.866896 0.247396 0.881848
473 1 1.00217 0.373406 0.875881
474 1 0.125895 0.377259 0.873865
475 1 0.250998 0.373051 0.877539
476 1 0.378838 0.379797 0.867194
477 1 0.501379 0.384156 0.866698
478 1 0.616615 0.382958 0.880953
479 1 0.748483 0.375776 0.875552
480 1 0.871645 0.37708 0.872295
481 1 1.00112 0.495831 0.879182
482 1 0.125869 0.500831 0.871109
483 1 0.24813 0.503284 0.869956
484 1 0.375212 0.500755 0.869607
485 1 0.497219 0.513864 0.871141
486 1 0.631259 0.503395 0.872024
487 1 0.750536 0.494389 0.882339
488 1 0.873631 0.503595 0.870656
489 1 0.997787 0.622663 0.875076
490 1 0.123281 0.62556 0.873039
491 1 0.251789 0.61819 0.874293
492 1 0.3684 0.629569 0.873956
493 1 0.497894 0.630361 0.871935
494 1 0.622752 0.629848 0.874144
495 1 0.755164 0.623603 0.872691
496 1 0.872031 0.62525 0.875359
497 1 0.996715 0.751122 0.871952
498 1 0.112845 0.752186 0.877404
499 1 0.240385 0.749399 0.875276
500 1 0.376631 0.749294 0.869697
501 1 0.500483 0.755742 0.871
502 1 0.633165 0.753556 0.872469
503 1 0.745846 0.752295 0.880306
504 1 0.879652 0.74623 0.868904
505 1 0.999528 0.867509 0.878001
506 1 0.11584 0.872933 0.881566
507 1 0.247357 0.875466 0.871006
508 1 0.373854 0.874394 0.871594
509 1 0.498049 0.880345 0.871535
510 1 0.622523 0.881407 0.87839
511 1 0.748754 0.870947 0.879594
512 1 0.875197 0.876935 0.875698
ITEM: TIMESTEP
100000
ITEM: NUMBER OF ATOMS
512
ITEM: BOX BOUNDS xy xz yz pp pp pp
-1.6574307700068402e-02 4.6196658083503252e+01 1.1553308167901260e+01