ITEM: TIMESTEP
0
ITEM: NUMBER OF ATOMS
512
ITEM: BOX BOUNDS xy xz yz pp pp pp
0.0000000000000000e+00 4.4394966010000005e+01 1.1098741499999999e+01
0.0000000000000000e+00 2.5631445580000001e+01 1.1098741499999999e+01
0.0000000000000000e+00 1.8124168980000000e+01 6.4078613899999999e+00
ITEM: ATOMS id type xs ys zs
1 1 0 0 0
2 1 0.125 0 0
3 1 0.25 0 0
4 1 0.375 0 0
5 1 0.5 0 0
6 1 0.625 0 0
7 1 0.75 0 0
8 1 0.875 0 0
9 1 1 0.125 0
10 1 0.125 0.125 0
11 1 0.25 0.125 0
12 1 0.375 0.125 0
13 1 0.5 0.125 0
14 1 0.625 0.125 0
15 1 0.75 0.125 0
16 1 0.875 0.125 0
17 1 1 0.25 0
18 1 0.125 0.25 0
19 1 0.25 0.25 0
20 1 0.375 0.25 0
21 1 0.5 0.25 0
22 1 0.625 0.25 0
23 1 0.75 0.25 0
24 1 0.875 0.25 0
25 1 9.20843e-11 0.375 0
26 1 0.125 0.375 0
27 1 0.25 0.375 0
28 1 0.375 0.375 0
29 1 0.5 0.375 0
30 1 0.625 0.375 0
31 1 0.75 0.375 0
32 1 0.875 0.375 0
33 1 2.11212e-10 0.5 0
34 1 0.125 0.5 0
35 1 0.25 0.5 0
36 1 0.375 0.5 0
37 1 0.5 0.5 0
38 1 0.625 0.5 0
39 1 0.75 0.5 0
40 1 0.875 0.5 0
41 1 1 0.625 0
42 1 0.125 0.625 0
43 1 0.25 0.625 0
44 1 0.375 0.625 0
45 1 0.5 0.625 0
46 1 0.625 0.625 0
47 1 0.75 0.625 0
48 1 0.875 0.625 0
49 1 1 0.75 0
50 1 0.125 0.75 0
51 1 0.25 0.75 0
52 1 0.375 0.75 0
53 1 0.5 0.75 0
54 1 0.625 0.75 0
55 1 0.75 0.75 0
56 1 0.875 0.75 0
57 1 1 0.875 0
58 1 0.125 0.875 0
59 1 0.25 0.875 0
60 1 0.375 0.875 0
61 1 0.5 0.875 0
62 1 0.625 0.875 0
63 1 0.75 0.875 0
64 1 0.875 0.875 0
65 1 1 7.82054e-10 0.125
66 1 0.125 7.82054e-10 0.125
67 1 0.25 7.82054e-10 0.125
68 1 0.375 7.82054e-10 0.125
69 1 0.5 7.82054e-10 0.125
70 1 0.625 7.82054e-10 0.125
71 1 0.75 7.82054e-10 0.125
72 1 0.875 7.82054e-10 0.125
73 1 1 0.125 0.125
74 1 0.125 0.125 0.125
75 1 0.25 0.125 0.125
76 1 0.375 0.125 0.125
77 1 0.5 0.125 0.125
78 1 0.625 0.125 0.125
79 1 0.75 0.125 0.125
80 1 0.875 0.125 0.125
81 1 2.62217e-11 0.25 0.125
82 1 0.125 0.25 0.125
83 1 0.25 0.25 0.125
84 1 0.375 0.25 0.125
85 1 0.5 0.25 0.125
86 1 0.625 0.25 0.125
87 1 0.75 0.25 0.125
88 1 0.875 0.25 0.125
89 1 1.4535e-10 0.375 0.125
90 1 0.125 0.375 0.125
91 1 0.25 0.375 0.125
92 1 0.375 0.375 0.125
93 1 0.5 0.375 0.125
94 1 0.625 0.375 0.125
95 1 0.75 0.375 0.125
96 1 0.875 0.375 0.125
97 1 1 0.5 0.125
98 1 0.125 0.5 0.125
99 1 0.25 0.5 0.125
100 1 0.375 0.5 0.125
101 1 0.5 0.5 0.125
102 1 0.625 0.5 0.125
103 1 0.75 0.5 0.125
104 1 0.875 0.5 0.125
105 1 1 0.625 0.125
106 1 0.125 0.625 0.125
107 1 0.25 0.625 0.125
108 1 0.375 0.625 0.125
109 1 0.5 0.625 0.125
110 1 0.625 0.625 0.125
111 1 0.75 0.625 0.125
112 1 0.875 0.625 0.125
113 1 1 0.75 0.125
114 1 0.125 0.75 0.125
115 1 0.25 0.75 0.125
116 1 0.375 0.75 0.125
117 1 0.5 0.75 0.125
118 1 0.625 0.75 0.125
119 1 0.75 0.75 0.125
120 1 0.875 0.75 0.125
121 1 1.66157e-10 0.875 0.125
122 1 0.125 0.875 0.125
123 1 0.25 0.875 0.125
124 1 0.375 0.875 0.125
125 1 0.5 0.875 0.125
126 1 0.625 0.875 0.125
127 1 0.75 0.875 0.125
128 1 0.875 0.875 0.125
129 1 1 3.34601e-10 0.25
130 1 0.125 3.34601e-10 0.25
131 1 0.25 3.34601e-10 0.25
132 1 0.375 3.34601e-10 0.25
133 1 0.5 3.34601e-10 0.25
134 1 0.625 3.34601e-10 0.25
135 1 0.75 3.34601e-10 0.25
136 1 0.875 3.34601e-10 0.25
137 1 1 0.125 0.25
138 1 0.125 0.125 0.25
139 1 0.25 0.125 0.25
140 1 0.375 0.125 0.25
141 1 0.5 0.125 0.25
142 1 0.625 0.125 0.25
143 1 0.75 0.125 0.25
144 1 0.875 0.125 0.25
145 1 1.55668e-10 0.25 0.25
146 1 0.125 0.25 0.25
147 1 0.25 0.25 0.25
148 1 0.375 0.25 0.25
149 1 0.5 0.25 0.25
150 1 0.625 0.25 0.25
151 1 0.75 0.25 0.25
152 1 0.875 0.25 0.25
153 1 1 0.375 0.25
154 1 0.125 0.375 0.25
155 1 0.25 0.375 0.25
156 1 0.375 0.375 0.25
157 1 0.5 0.375 0.25
158 1 0.625 0.375 0.25
159 1 0.75 0.375 0.25
160 1 0.875 0.375 0.25
161 1 1 0.5 0.25
162 1 0.125 0.5 0.25
163 1 0.25 0.5 0.25
164 1 0.375 0.5 0.25
165 1 0.5 0.5 0.25
166 1 0.625 0.5 0.25
167 1 0.75 0.5 0.25
168 1 0.875 0.5 0.25
169 1 1 0.625 0.25
170 1 0.125 0.625 0.25
171 1 0.25 0.625 0.25
172 1 0.375 0.625 0.25
173 1 0.5 0.625 0.25
174 1 0.625 0.625 0.25
175 1 0.75 0.625 0.25
176 1 0.875 0.625 0.25
177 1 1 0.75 0.25
178 1 0.125 0.75 0.25
179 1 0.25 0.75 0.25
180 1 0.375 0.75 0.25
181 1 0.5 0.75 0.25
182 1 0.625 0.75 0.25
183 1 0.75 0.75 0.25
184 1 0.875 0.75 0.25
185 1 3.2905e-11 0.875 0.25
186 1 0.125 0.875 0.25
187 1 0.25 0.875 0.25
188 1 0.375 0.875 0.25
189 1 0.5 0.875 0.25
190 1 0.625 0.875 0.25
191 1 0.75 0.875 0.25
192 1 0.875 0.875 0.25
193 1 1 5.96461e-10 0.375
194 1 0.125 5.96461e-10 0.375
195 1 0.25 5.96461e-10 0.375
196 1 0.375 5.96461e-10 0.375
197 1 0.5 5.96461e-10 0.375
198 1 0.625 5.96461e-10 0.375
199 1 0.75 5.96461e-10 0.375
200 1 0.875 5.96461e-10 0.375
201 1 8.98049e-11 0.125 0.375
202 1 0.125 0.125 0.375
203 1 0.25 0.125 0.375
204 1 0.375 0.125 0.375
205 1 0.5 0.125 0.375
206 1 0.625 0.125 0.375
207 1 0.75 0.125 0.375
208 1 0.875 0.125 0.375
209 1 1 0.25 0.375
210 1 0.125 0.25 0.375
211 1 0.25 0.25 0.375
212 1 0.375 0.25 0.375
213 1 0.5 0.25 0.375
214 1 0.625 0.25 0.375
215 1 0.75 0.25 0.375
216 1 0.875 0.25 0.375
217 1 1 0.375 0.375
218 1 0.125 0.375 0.375
219 1 0.25 0.375 0.375
220 1 0.375 0.375 0.375
221 1 0.5 0.375 0.375
222 1 0.625 0.375 0.375
223 1 0.75 0.375 0.375
224 1 0.875 0.375 0.375
225 1 1 0.5 0.375
226 1 0.125 0.5 0.375
227 1 0.25 0.5 0.375
228 1 0.375 0.5 0.375
229 1 0.5 0.5 0.375
230 1 0.625 0.5 0.375
231 1 0.75 0.5 0.375
232 1 0.875 0.5 0.375
233 1 1.10613e-10 0.625 0.375
234 1 0.125 0.625 0.375
235 1 0.25 0.625 0.375
236 1 0.375 0.625 0.375
237 1 0.5 0.625 0.375
238 1 0.625 0.625 0.375
239 1 0.75 0.625 0.375
240 1 0.875 0.625 0.375
241 1 1 0.75 0.375
242 1 0.125 0.75 0.375
243 1 0.25 0.75 0.375
244 1 0.375 0.75 0.375
245 1 0.5 0.75 0.375
246 1 0.625 0.75 0.375
247 1 0.75 0.75 0.375
248 1 0.875 0.75 0.375
249 1 3.46267e-10 0.875 0.375
250 1 0.125 0.875 0.375
251 1 0.25 0.875 0.375
252 1 0.375 0.875 0.375
253 1 0.5 0.875 0.375
254 1 0.625 0.875 0.375
255 1 0.75 0.875 0.375
256 1 0.875 0.875 0.375
257 1 2.84039e-10 3.32924e-10 0.5
258 1 0.125 3.32924e-10 0.5
259 1 0.25 3.32924e-10 0.5
260 1 0.375 3.32924e-10 0.5
261 1 0.5 3.32924e-10 0.5
262 1 0.625 3.32924e-10 0.5
263 1 0.75 3.32924e-10 0.5
264 1 0.875 3.32924e-10 0.5
265 1 1 0.125 0.5
266 1 0.125 0.125 0.5
267 1 0.25 0.125 0.5
268 1 0.375 0.125 0.5
269 1 0.5 0.125 0.5
270 1 0.625 0.125 0.5
271 1 0.75 0.125 0.5
272 1 0.875 0.125 0.5
273 1 1 0.25 0.5
274 1 0.125 0.25 0.5
275 1 0.25 0.25 0.5
276 1 0.375 0.25 0.5
277 1 0.5 0.25 0.5
278 1 0.625 0.25 0.5
279 1 0.75 0.25 0.5
280 1 0.875 0.25 0.5
281 1 1 0.375 0.5
282 1 0.125 0.375 0.5
283 1 0.25 0.375 0.5
284 1 0.375 0.375 0.5
285 1 0.5 0.375 0.5
286 1 0.625 0.375 0.5
287 1 0.75 0.375 0.5
288 1 0.875 0.375 0.5
289 1 4.475e-11 0.5 0.5
290 1 0.125 0.5 0.5
291 1 0.25 0.5 0.5
292 1 0.375 0.5 0.5
293 1 0.5 0.5 0.5
294 1 0.625 0.5 0.5
295 1 0.75 0.5 0.5
296 1 0.875 0.5 0.5
297 1 1 0.625 0.5
298 1 0.125 0.625 0.5
299 1 0.25 0.625 0.5
300 1 0.375 0.625 0.5
301 1 0.5 0.625 0.5
302 1 0.625 0.625 0.5
303 1 0.75 0.625 0.5
304 1 0.875 0.625 0.5
305 1 2.80405e-10 0.75 0.5
306 1 0.125 0.75 0.5
307 1 0.25 0.75 0.5
308 1 0.375 0.75 0.5
309 1 0.5 0.75 0.5
310 1 0.625 0.75 0.5
311 1 0.75 0.75 0.5
312 1 0.875 0.75 0.5
313 1 3.96931e-10 0.875 0.5
314 1 0.125 0.875 0.5
315 1 0.25 0.875 0.5
316 1 0.375 0.875 0.5
317 1 0.5 0.875 0.5
318 1 0.625 0.875 0.5
319 1 0.75 0.875 0.5
320 1 0.875 0.875 0.5
321 1 1 9.31062e-10 0.625
322 1 0.125 9.31062e-10 0.625
323 1 0.25 9.31062e-10 0.625
324 1 0.375 9.31062e-10 0.625
325 1 0.5 9.31062e-10 0.625
326 1 0.625 9.31062e-10 0.625
327 1 0.75 9.31062e-10 0.625
328 1 0.875 9.31062e-10 0.625
329 1 1 0.125 0.625
330 1 0.125 0.125 0.625
331 1 0.25 0.125 0.625
332 1 0.375 0.125 0.625
333 1 0.5 0.125 0.625
334 1 0.625 0.125 0.625
335 1 0.75 0.125 0.625
336 1 0.875 0.125 0.625
337 1 1 0.25 0.625
338 1 0.125 0.25 0.625
339 1 0.25 0.25 0.625
340 1 0.375 0.25 0.625
341 1 0.5 0.25 0.625
342 1 0.625 0.25 0.625
343 1 0.75 0.25 0.625
344 1 0.875 0.25 0.625
345 1 1 0.375 0.625
346 1 0.125 0.375 0.625
347 1 0.25 0.375 0.625
348 1 0.375 0.375 0.625
349 1 0.5 0.375 0.625
350 1 0.625 0.375 0.625
351 1 0.75 0.375 0.625
352 1 0.875 0.375 0.625
353 1 1 0.5 0.625
354 1 0.125 0.5 0.625
355 1 0.25 0.5 0.625
356 1 0.375 0.5 0.625
357 1 0.5 0.5 0.625
358 1 0.625 0.5 0.625
359 1 0.75 0.5 0.625
360 1 0.875 0.5 0.625
361 1 3.06256e-11 0.625 0.625
362 1 0.125 0.625 0.625
363 1 0.25 0.625 0.625
364 1 0.375 0.625 0.625
365 1 0.5 0.625 0.625
366 1 0.625 0.625 0.625
367 1 0.75 0.625 0.625
368 1 0.875 0.625 0.625
369 1 1.47153e-10 0.75 0.625
370 1 0.125 0.75 0.625
371 1 0.25 0.75 0.625
372 1 0.375 0.75 0.625
373 1 0.5 0.75 0.625
374 1 0.625 0.75 0.625
375 1 0.75 0.75 0.625
376 1 0.875 0.75 0.625
377 1 7.58759e-11 0.875 0.625
378 1 0.125 0.875 0.625
379 1 0.25 0.875 0.625
380 1 0.375 0.875 0.625
381 1 0.5 0.875 0.625
382 1 0.625 0.875 0.625
383 1 0.75 0.875 0.625
384 1 0.875 0.875 0.625
385 1 1 6.67526e-10 0.75
386 1 0.125 6.67526e-10 0.75
387 1 0.25 6.67526e-10 0.75
388 1 0.375 6.67526e-10 0.75
389 1 0.5 6.67526e-10 0.75
390 1 0.625 6.67526e-10 0.75
391 1 0.75 6.67526e-10 0.75
392 1 0.875 6.67526e-10 0.75
393 1 1 0.125 0.75
394 1 0.125 0.125 0.75
395 1 0.25 0.125 0.75
396 1 0.375 0.125 0.75
397 1 0.5 0.125 0.75
398 1 0.625 0.125 0.75
399 1 0.75 0.125 0.75
400 1 0.875 0.125 0.75
401 1 1 0.25 0.75
402 1 0.125 0.25 0.75
403 1 0.25 0.25 0.75
404 1 0.375 0.25 0.75
405 1 0.5 0.25 0.75
406 1 0.625 0.25 0.75
407 1 0.75 0.25 0.75
408 1 0.875 0.25 0.75
409 1 1 0.375 0.75
410 1 0.125 0.375 0.75
411 1 0.25 0.375 0.75
412 1 0.375 0.375 0.75
413 1 0.5 0.375 0.75
414 1 0.625 0.375 0.75
415 1 0.75 0.375 0.75
416 1 0.875 0.375 0.75
417 1 2.2486e-10 0.5 0.75
418 1 0.125 0.5 0.75
419 1 0.25 0.5 0.75
420 1 0.375 0.5 0.75
421 1 0.5 0.5 0.75
422 1 0.625 0.5 0.75
423 1 0.75 0.5 0.75
424 1 0.875 0.5 0.75
425 1 8.12897e-11 0.625 0.75
426 1 0.125 0.625 0.75
427 1 0.25 0.625 0.75
428 1 0.375 0.625 0.75
429 1 0.5 0.625 0.75
430 1 0.625 0.625 0.75
431 1 0.75 0.625 0.75
432 1 0.875 0.625 0.75
433 1 1.00132e-11 0.75 0.75
434 1 0.125 0.75 0.75
435 1 0.25 0.75 0.75
436 1 0.375 0.75 0.75
437 1 0.5 0.75 0.75
438 1 0.625 0.75 0.75
439 1 0.75 0.75 0.75
440 1 0.875 0.75 0.75
441 1 1.2654e-10 0.875 0.75
442 1 0.125 0.875 0.75
443 1 0.25 0.875 0.75
444 1 0.375 0.875 0.75
445 1 0.5 0.875 0.75
446 1 0.625 0.875 0.75
447 1 0.75 0.875 0.75
448 1 0.875 0.875 0.75
449 1 1 9.29385e-10 0.875
450 1 0.125 9.29385e-10 0.875
451 1 0.25 9.29385e-10 0.875
452 1 0.375 9.29385e-10 0.875
453 1 0.5 9.29385e-10 0.875
454 1 0.625 9.29385e-10 0.875
455 1 0.75 9.29385e-10 0.875
456 1 0.875 9.29385e-10 0.875
457 1 1 0.125 0.875
458 1 0.125 0.125 0.875
459 1 0.25 0.125 0.875
460 1 0.375 0.125 0.875
461 1 0.5 0.125 0.875
462 1 0.625 0.125 0.875
463 1 0.75 0.125 0.875
464 1 0.875 0.125 0.875
465 1 3.98696e-11 0.25 0.875
466 1 0.125 0.25 0.875
467 1 0.25 0.25 0.875
468 1 0.375 0.25 0.875
469 1 0.5 0.25 0.875
470 1 0.625 0.25 0.875
471 1 0.75 0.25 0.875
472 1 0.875 0.25 0.875
473 1 1.58998e-10 0.375 0.875
474 1 0.125 0.375 0.875
475 1 0.25 0.375 0.875
476 1 0.375 0.375 0.875
477 1 0.5 0.375 0.875
478 1 0.625 0.375 0.875
479 1 0.75 0.375 0.875
480 1 0.875 0.375 0.875
481 1 1.54271e-11 0.5 0.875
482 1 0.125 0.5 0.875
483 1 0.25 0.5 0.875
484 1 0.375 0.5 0.875
485 1 0.5 0.5 0.875
486 1 0.625 0.5 0.875
487 1 0.75 0.5 0.875
488 1 0.875 0.5 0.875
489 1 1 0.625 0.875
490 1 0.125 0.625 0.875
491 1 0.25 0.625 0.875
492 1 0.375 0.625 0.875
493 1 0.5 0.625 0.875
494 1 0.625 0.625 0.875
495 1 0.75 0.625 0.875
496 1 0.875 0.625 0.875
497 1 6.06771e-11 0.75 0.875
498 1 0.125 0.75 0.875
499 1 0.25 0.75 0.875
500 1 0.375 0.75 0.875
501 1 0.5 0.75 0.875
502 1 0.625 0.75 0.875
503 1 0.75 0.75 0.875
504 1 0.875 0.75 0.875
505 1 1.79805e-10 0.875 0.875
506 1 0.125 0.875 0.875
507 1 0.25 0.875 0.875
508 1 0.375 0.875 0.875
509 1 0.5 0.875 0.875
510 1 0.625 0.875 0.875
511 1 0.75 0.875 0.875
512 1 0.875 0.875 0.875
ITEM: TIMESTEP
50000
ITEM: NUMBER OF ATOMS
512
ITEM: BOX BOUNDS xy xz yz pp pp pp
-1.8593320210051445e-02 4.4450745970614328e+01 1.1117334820201942e+01
-1.6102287645507474e-02 2.5658282726064272e+01 1.1117334820201942e+01
-1.5181382377157604e-02 1.8139350362377158e+01 6.4185962484191199e+00
ITEM: ATOMS id type xs ys zs
1 1 0.00941764 -0.000382549 -0.00678394
2 1 0.125265 -0.00231774 0.0102351
3 1 0.252452 0.00209649 0.00150137
4 1 0.371729 -0.0058213 0.00461294
5 1 0.50249 -0.00608655 -0.00542248
6 1 0.626839 0.000670845 5.48815e-05
7 1 0.756513 -0.00389246 -0.00395271
8 1 0.880604 -0.00144348 -0.00823351
9 1 0.991966 0.136895 -0.00300253
10 1 0.123666 0.123402 -0.000423984
11 1 0.252494 0.118687 0.0035684
12 1 0.377271 0.119271 -0.000467444
13 1 0.506011 0.118148 -0.00611374
14 1 0.618794 0.124439 0.0044564
15 1 0.751971 0.123716 -0.00345311
16 1 0.878676 0.119435 -0.00416341
17 1 1.00094 0.258383 -0.00563237
18 1 0.128831 0.24788 -0.00122173
19 1 0.257726 0.239599 -0.000240383
20 1 0.381843 0.240457 0.00155026
21 1 0.494387 0.249111 0.00452464
22 1 0.625215 0.249127 0.00381785
23 1 0.74766 0.251234 -0.00062005
24 1 0.871691 0.256977 -0.00509927
25 1 -0.00362308 0.376215 0.00198666
26 1 0.126088 0.362925 0.00748808
27 1 0.248877 0.370222 0.00355079
28 1 0.367087 0.377701 0.00525356
29 1 0.497534 0.378801 0.00127996
30 1 0.6268 0.376408 -0.000709479
31 1 0.755374 0.377011 -0.0074174
32 1 0.875632 0.3817 -0.00837999
33 1 -0.00310986 0.497457 -0.00165261
34 1 0.125801 0.497547 -0.00396881
35 1 0.243058 0.50769 0.00309284
36 1 0.370357 0.501139 0.00161904
37 1 0.500511 0.504483 -0.00413889
38 1 0.635569 0.500951 -0.00603307
39 1 0.748483 0.502002 0.0064841
40 1 0.873505 0.505041 -0.00678544
41 1 0.994241 0.625391 -0.00140223
42 1 0.126171 0.619463 0.00399092
43 1 0.246673 0.623311 0.00356598
44 1 0.378662 0.624465 -0.00370505
45 1 0.510237 0.622689 -0.00555526
46 1 0.622777 0.625723 0.00425166
47 1 0.751146 0.624839 0.00338041
48 1 0.871598 0.623405 0.00389696
49 1 1.00161 0.747087 0.00463102
50 1 0.127641 0.754235 -0.00169298
51 1 0.249988 0.753466 0.00104152
52 1 0.379692 0.744361 0.000645464
53 1 0.498177 0.753486 -0.00416453
54 1 0.616937 0.74744 0.00870324
55 1 0.745621 0.751477 -0.00115267
56 1 0.874405 0.748986 0.00104692
57 1 1.00135 0.877044 -0.00483006
58 1 0.125818 0.876252 -1.86357e-05
59 1 0.250701 0.873301 0.00399765
60 1 0.378186 0.875631 -0.00573312
61 1 0.494637 0.873321 0.007154
62 1 0.6184 0.870906 0.0156581
63 1 0.750587 0.864964 -0.000414493
64 1 0.881618 0.874622 -0.00725767
65 1 1.00422 0.0019968 0.119731
66 1 0.132251 -0.00270156 0.128076
67 1 0.251027 0.00309884 0.130364
68 1 0.373825 0.000577766 0.121536
69 1 0.498513 0.00276215 0.120439
70 1 0.627603 0.00121503 0.119046
71 1 0.756822 -0.00057451 0.120966
72 1 0.881224 0.00311832 0.117285
73 1 1.00387 0.123654 0.121405
74 1 0.122924 0.124041 0.126894
75 1 0.25051 0.127246 0.124448
76 1 0.373145 0.126038 0.124793
77 1 0.496075 0.128767 0.124554
78 1 0.624732 0.125845 0.124283
79 1 0.748607 0.123711 0.123551
80 1 0.871658 0.12873 0.122895
81 1 -0.00443802 0.253065 0.131042
82 1 0.128832 0.248417 0.130911
83 1 0.240197 0.252245 0.133164
84 1 0.37424 0.258414 0.120757
85 1 0.49109 0.26182 0.115479
86 1 0.62445 0.2496 0.122623
87 1 0.751028 0.247665 0.122888
88 1 0.882417 0.245742 0.119121
89 1 0.00712217 0.370708 0.128398
90 1 0.128729 0.384689 0.119936
91 1 0.251177 0.372093 0.13254
92 1 0.371238 0.383587 0.127077
93 1 0.505235 0.375179 0.125403
94 1 0.627213 0.372704 0.125856
95 1 0.750344 0.377476 0.123177
96 1 0.874421 0.374289 0.122847
97 1 0.999294 0.499552 0.122386
98 1 0.116166 0.506497 0.126047
99 1 0.2425 0.505065 0.126234
100 1 0.384332 0.504878 0.114507
101 1 0.501244 0.498364 0.126294
102 1 0.621362 0.495428 0.131727
103 1 0.750655 0.492845 0.130291
104 1 0.868188 0.496544 0.125286
105 1 1.00071 0.630094 0.11857
106 1 0.119905 0.626594 0.12973
107 1 0.250708 0.625148 0.132005
108 1 0.377107 0.626582 0.125808
109 1 0.503834 0.627908 0.122872
110 1 0.626357 0.620462 0.130573
111 1 0.749313 0.619776 0.132774
112 1 0.876988 0.632613 0.115554
113 1 0.999183 0.749098 0.128428
114 1 0.123472 0.744945 0.126957
115 1 0.251571 0.74552 0.128173
116 1 0.378199 0.755497 0.120548
117 1 0.498678 0.746142 0.134163
118 1 0.620956 0.752427 0.128734
119 1 0.752017 0.746013 0.122228
120 1 0.876657 0.754062 0.119929
121 1 0.00125543 0.87446 0.12141
122 1 0.122194 0.867328 0.132356
123 1 0.256236 0.873897 0.125325
124 1 0.378818 0.872625 0.130132
125 1 0.500928 0.877607 0.12985
126 1 0.634814 0.87384 0.122986
127 1 0.75562 0.87698 0.116544
128 1 0.878963 0.874253 0.130551
129 1 1.0048 -0.000983754 0.246989
130 1 0.125488 -0.00168236 0.253879
131 1 0.257194 -0.00225267 0.253143
132 1 0.378371 0.00219586 0.248129
133 1 0.500574 0.010087 0.243946
134 1 0.623911 0.00127324 0.249045
135 1 0.755358 -0.00478183 0.247679
136 1 0.874159 0.00557031 0.247957
137 1 1.00446 0.121813 0.244496
138 1 0.126286 0.126041 0.248651
139 1 0.244547 0.124791 0.256991
140 1 0.36961 0.130799 0.248816
141 1 0.503105 0.125161 0.248957
142 1 0.633029 0.113645 0.256471
143 1 0.749832 0.128708 0.246293
144 1 0.878401 0.125392 0.242718
145 1 -0.00576015 0.251865 0.251465
146 1 0.121004 0.254294 0.254946
147 1 0.247605 0.255127 0.250523
148 1 0.371462 0.255278 0.250881
149 1 0.503407 0.246657 0.244137
150 1 0.621213 0.248373 0.248617
151 1 0.751545 0.250518 0.25051
152 1 0.876565 0.243849 0.24808
153 1 0.99575 0.377576 0.251337
154 1 0.124488 0.382739 0.245424
155 1 0.249505 0.377945 0.25293
156 1 0.376652 0.379298 0.248813
157 1 0.497377 0.37271 0.249667
158 1 0.622937 0.369825 0.253355
159 1 0.75671 0.367227 0.257547
160 1 0.873026 0.367793 0.259398
161 1 0.995874 0.499793 0.248192
162 1 0.1231 0.5004 0.251256
163 1 0.246442 0.503586 0.247448
164 1 0.371032 0.510471 0.241604
165 1 0.506909 0.489264 0.250153
166 1 0.628683 0.494816 0.249096
167 1 0.754953 0.491619 0.251374
168 1 0.873921 0.505025 0.24234
169 1 0.998531 0.62854 0.24508
170 1 0.12784 0.625482 0.246863
171 1 0.249694 0.627637 0.254331
172 1 0.373061 0.630777 0.247734
173 1 0.500445 0.624664 0.253109
174 1 0.624982 0.621498 0.249757
175 1 0.750991 0.628847 0.24612
176 1 0.877353 0.630105 0.240655
177 1 1.00439 0.751905 0.249811
178 1 0.129461 0.746092 0.253972
179 1 0.2521 0.753451 0.243959
180 1 0.372486 0.740494 0.25706
181 1 0.499628 0.74979 0.250488
182 1 0.622449 0.753958 0.247239
183 1 0.746816 0.754787 0.24396
184 1 0.877513 0.746149 0.259567
185 1 -0.00492418 0.877582 0.254424
186 1 0.124894 0.87084 0.2533
187 1 0.257101 0.871574 0.249697
188 1 0.373635 0.871902 0.260559
189 1 0.497133 0.883167 0.245409
190 1 0.623703 0.877806 0.245265
191 1 0.74707 0.875401 0.246033
192 1 0.886062 0.881447 0.239016
193 1 0.996798 0.00351956 0.377786
194 1 0.127086 -0.00419153 0.372816
195 1 0.250185 0.000281734 0.374466
196 1 0.375321 -0.00182708 0.37323
197 1 0.497051 0.00510796 0.37408
198 1 0.62741 -0.00945624 0.374362
199 1 0.747876 0.00219895 0.371577
200 1 0.874667 -0.00233755 0.373009
201 1 -0.000893861 0.122677 0.377808
202 1 0.121933 0.123807 0.378432
203 1 0.243712 0.125369 0.37485
204 1 0.37879 0.123396 0.370755
205 1 0.498007 0.126643 0.375273
206 1 0.616386 0.12454 0.377387
207 1 0.744637 0.123852 0.374023
208 1 0.874153 0.117329 0.376741
209 1 0.992049 0.249229 0.372868
210 1 0.110038 0.259551 0.372948
211 1 0.255162 0.239514 0.376648
212 1 0.382931 0.248248 0.371265
213 1 0.498878 0.258613 0.374507
214 1 0.620748 0.245467 0.376268
215 1 0.752436 0.23713 0.386197
216 1 0.86888 0.247179 0.374991
217 1 0.987583 0.386668 0.371489
218 1 0.121409 0.370314 0.382031
219 1 0.253931 0.377394 0.371385
220 1 0.372765 0.384792 0.377202
221 1 0.493224 0.378618 0.380099
222 1 0.621724 0.367671 0.378658
223 1 0.741889 0.373703 0.380102
224 1 0.868629 0.377417 0.379358
225 1 0.991314 0.50118 0.377055
226 1 0.123261 0.499165 0.375951
227 1 0.243033 0.505434 0.373122
228 1 0.375186 0.507559 0.376935
229 1 0.504689 0.499565 0.373747
230 1 0.627292 0.497595 0.370698
231 1 0.755752 0.496325 0.368505
232 1 0.875403 0.500583 0.364682
233 1 -0.0123726 0.63008 0.376912
234 1 0.122127 0.630583 0.375866
235 1 0.243811 0.630599 0.374805
236 1 0.372201 0.627688 0.379506
237 1 0.500182 0.624848 0.377592
238 1 0.623447 0.628234 0.370695
239 1 0.74617 0.623021 0.375332
240 1 0.866701 0.627426 0.375776
241 1 0.992034 0.752093 0.381802
242 1 0.114283 0.749475 0.38333
243 1 0.245955 0.748839 0.374991
244 1 0.375805 0.747136 0.378636
245 1 0.501713 0.741994 0.380851
246 1 0.626045 0.752369 0.368673
247 1 0.755189 0.749974 0.369265
248 1 0.869069 0.756167 0.376735
249 1 -0.00252584 0.884006 0.369413
250 1 0.126333 0.873632 0.379046
251 1 0.251494 0.869785 0.372865
252 1 0.379104 0.8753 0.375789
253 1 0.497969 0.879745 0.372205
254 1 0.631364 0.86417 0.368954
255 1 0.750238 0.878611 0.368591
256 1 0.871285 0.873146 0.382114
257 1 -0.00374876 -0.00759917 0.502597
258 1 0.132699 -0.000363777 0.494489
259 1 0.250158 0.00957443 0.490889
260 1 0.374544 0.00399792 0.498835
261 1 0.499312 0.000297843 0.497863
262 1 0.62903 -0.00129728 0.493474
263 1 0.746551 -0.00483578 0.509352
264 1 0.873511 -0.00753488 0.502575
265 1 0.997625 0.123426 0.505273
266 1 0.122673 0.127828 0.500823
267 1 0.250817 0.124764 0.500975
268 1 0.371221 0.134051 0.496519
269 1 0.501209 0.124339 0.495453
270 1 0.62107 0.122916 0.502501
271 1 0.747099 0.122471 0.503248
272 1 0.876442 0.112584 0.498034
273 1 0.992325 0.254114 0.491092
274 1 0.122259 0.253602 0.500014
275 1 0.250599 0.249749 0.498266
276 1 0.376759 0.258029 0.486097
277 1 0.500261 0.255731 0.497823
278 1 0.622021 0.248398 0.506935
279 1 0.75372 0.244808 0.504332
280 1 0.870356 0.245274 0.506743
281 1 0.998472 0.373616 0.505989
282 1 0.123956 0.375094 0.502409
283 1 0.254721 0.371266 0.497096
284 1 0.370934 0.379794 0.503264
285 1 0.499287 0.379226 0.494245
286 1 0.625986 0.368286 0.503994
287 1 0.750627 0.37088 0.505491
288 1 0.867326 0.38065 0.498436
289 1 -0.00874279 0.502318 0.50268
290 1 0.119953 0.500697 0.5033
291 1 0.249477 0.508512 0.492965
292 1 0.37069 0.498489 0.506846
293 1 0.488807 0.499228 0.498951
294 1 0.616836 0.503242 0.493912
295 1 0.75067 0.501622 0.490373
296 1 0.873033 0.505946 0.491679
297 1 0.999599 0.622547 0.504398
298 1 0.128248 0.620859 0.505077
299 1 0.247206 0.630083 0.502445
300 1 0.372177 0.624672 0.501871
301 1 0.497394 0.621068 0.505023
302 1 0.628319 0.621392 0.499176
303 1 0.748998 0.629176 0.497437
304 1 0.872166 0.626583 0.494125
305 1 -0.00284285 0.751794 0.506182
306 1 0.127232 0.750877 0.500209
307 1 0.254385 0.740046 0.507244
308 1 0.380784 0.74434 0.506555
309 1 0.507673 0.737011 0.502351
310 1 0.620316 0.745254 0.499674
311 1 0.751708 0.756677 0.497652
312 1 0.872057 0.747034 0.506305
313 1 0.00219801 0.871355 0.499029
314 1 0.11612 0.878298 0.509657
315 1 0.255294 0.877084 0.496007
316 1 0.375847 0.87811 0.502868
317 1 0.501115 0.874479 0.496172
318 1 0.62375 0.871457 0.495097
319 1 0.748845 0.872414 0.508825
320 1 0.875039 0.873989 0.501384
321 1 1.0153 -0.00456864 0.614805
322 1 0.131802 -0.00653388 0.623176
323 1 0.24959 0.000797392 0.628516
324 1 0.375253 0.0103576 0.61802
325 1 0.502931 0.00318793 0.614987
326 1 0.623771 -0.00655862 0.623382
327 1 0.746634 0.00433848 0.629882
328 1 0.876744 -0.00434047 0.625722
329 1 1.00521 0.11898 0.616265
330 1 0.128992 0.126457 0.61607
331 1 0.24526 0.12808 0.62621
332 1 0.375339 0.124611 0.619739
333 1 0.490116 0.134154 0.620352
334 1 0.62444 0.123516 0.625535
335 1 0.749135 0.112145 0.637971
336 1 0.870555 0.122487 0.626737
337 1 1.00412 0.244266 0.620142
338 1 0.123068 0.246918 0.626252
339 1 0.250383 0.256925 0.619411
340 1 0.371339 0.255278 0.620161
341 1 0.506669 0.247469 0.620769
342 1 0.624739 0.240107 0.635516
343 1 0.746527 0.248738 0.631742
344 1 0.877197 0.240412 0.630764
345 1 0.991671 0.378841 0.626245
346 1 0.125768 0.377507 0.621371
347 1 0.243144 0.382783 0.627903
348 1 0.36941 0.373402 0.633879
349 1 0.507435 0.370377 0.62378
350 1 0.629992 0.36945 0.619735
351 1 0.749834 0.371351 0.625856
352 1 0.866116 0.38064 0.628102
353 1 0.999103 0.50587 0.622952
354 1 0.128428 0.493948 0.628652
355 1 0.249933 0.495398 0.628078
356 1 0.375414 0.493033 0.631666
357 1 0.492939 0.496411 0.630836
358 1 0.625389 0.497365 0.6188
359 1 0.748865 0.503404 0.620597
360 1 0.879522 0.498533 0.617675
361 1 0.00018315 0.628453 0.626407
362 1 0.132369 0.617548 0.626552
363 1 0.24171 0.623139 0.6328
364 1 0.373353 0.618594 0.629388
365 1 0.502537 0.618663 0.627592
366 1 0.62015 0.619564 0.62307
367 1 0.7484 0.6238 0.622779
368 1 0.875156 0.628377 0.619707
369 1 0.00151243 0.750271 0.631616
370 1 0.12584 0.750545 0.627583
371 1 0.253143 0.749667 0.625219
372 1 0.380009 0.748834 0.632331
373 1 0.501138 0.750446 0.626172
374 1 0.62104 0.748469 0.620163
375 1 0.745848 0.749553 0.630997
376 1 0.872751 0.750429 0.631501
377 1 -0.000588856 0.872824 0.62819
378 1 0.13766 0.874116 0.618585
379 1 0.266086 0.875233 0.614686
380 1 0.376998 0.88203 0.622059
381 1 0.502226 0.86933 0.626543
382 1 0.620638 0.871634 0.621488
383 1 0.744539 0.872893 0.630853
384 1 0.872757 0.877938 0.625143
385 1 1.00249 0.00721015 0.744771
386 1 0.126992 0.00143411 0.742676
387 1 0.253899 -0.00164042 0.753142
388 1 0.37162 0.00720188 0.748878
389 1 0.499977 0.0114447 0.736807
390 1 0.629715 -0.00818015 0.754405
391 1 0.751155 -0.00993867 0.757154
392 1 0.879712 -0.00318911 0.747518
393 1 1.00277 0.125919 0.740481
394 1 0.13097 0.122253 0.750568
395 1 0.2492 0.131061 0.743973
396 1 0.377375 0.137079 0.738493
397 1 0.506962 0.119544 0.745925
398 1 0.627581 0.109248 0.760403
399 1 0.755465 0.120698 0.752144
400 1 0.872681 0.122338 0.748214
401 1 1.01382 0.241553 0.742151
402 1 0.128904 0.253436 0.749867
403 1 0.244673 0.266986 0.739166
404 1 0.379986 0.254301 0.749223
405 1 0.501285 0.244376 0.757782
406 1 0.62682 0.251953 0.751317
407 1 0.750747 0.2546 0.753466
408 1 0.875139 0.256131 0.749343
409 1 1.00675 0.372301 0.742857
410 1 0.115517 0.375802 0.756834
411 1 0.245834 0.374556 0.757911
412 1 0.369314 0.367599 0.767586
413 1 0.496974 0.371158 0.751823
414 1 0.616176 0.381225 0.756492
415 1 0.746487 0.371246 0.75662
416 1 0.875086 0.375369 0.750854
417 1 -0.00351179 0.501277 0.745137
418 1 0.1226 0.502444 0.752684
419 1 0.253803 0.494369 0.751019
420 1 0.377688 0.495223 0.751963
421 1 0.494615 0.495787 0.755266
422 1 0.627465 0.504548 0.744487
423 1 0.757297 0.496889 0.744095
424 1 0.874447 0.504889 0.744186
425 1 -0.00154514 0.627494 0.749966
426 1 0.127784 0.627991 0.753797
427 1 0.252574 0.626932 0.754087
428 1 0.378618 0.613954 0.757499
429 1 0.503193 0.620978 0.748539
430 1 0.630335 0.620079 0.747448
431 1 0.750569 0.623028 0.744579
432 1 0.875899 0.630371 0.74887
433 1 0.0019733 0.74707 0.752829
434 1 0.128083 0.755724 0.746008
435 1 0.253369 0.747695 0.750162
436 1 0.378102 0.746358 0.752195
437 1 0.501167 0.753613 0.747509
438 1 0.618009 0.75398 0.750827
439 1 0.744322 0.755641 0.748547
440 1 0.871948 0.751673 0.754361
441 1 -0.00273052 0.882471 0.74592
442 1 0.125071 0.87382 0.7579
443 1 0.253994 0.873703 0.751594
444 1 0.368824 0.877723 0.751156
445 1 0.497774 0.886665 0.739665
446 1 0.616718 0.878976 0.757625
447 1 0.759181 0.871233 0.745775
448 1 0.878421 0.871237 0.751778
449 1 1.00713 0.00214098 0.869597
450 1 0.130221 0.00379347 0.874482
451 1 0.247719 0.00762705 0.878196
452 1 0.374763 0.00574873 0.874278
453 1 0.504444 0.00193052 0.873047
454 1 0.633656 -0.00679934 0.877129
455 1 0.753268 -0.00587531 0.873975
456 1 0.885529 7.92367e-05 0.864554
457 1 0.993619 0.122808 0.87174
458 1 0.120911 0.129369 0.877925
459 1 0.250821 0.134962 0.868486
460 1 0.378227 0.125507 0.872762
461 1 0.503208 0.12346 0.876275
462 1 0.625173 0.128748 0.869075
463 1 0.748451 0.123183 0.87431
464 1 0.875112 0.125622 0.867089
465 1 0.00101977 0.249167 0.871309
466 1 0.123482 0.253604 0.875409
467 1 0.25163 0.248279 0.875784
468 1 0.377008 0.246938 0.881025
469 1 0.504355 0.256505 0.873652
470 1 0.621007 0.255025 0.87773
471 1 0.753568 0.248094 0.874717
472 1 0.879379 0.252541 0.868337
473 1 -0.00377451 0.377643 0.876709
474 1 0.123923 0.368469 0.880405
475 1 0.24503 0.376044 0.88918
476 1 0.371395 0.374325 0.88206
477 1 0.503679 0.377194 0.880101
478 1 0.621586 0.370994 0.879967
479 1 0.746387 0.379492 0.874935
480 1 0.879225 0.376213 0.868299
481 1 -0.00046703 0.49418 0.87842
482 1 0.128958 0.494036 0.874226
483 1 0.246757 0.501647 0.876126
484 1 0.37472 0.499876 0.883329
485 1 0.498635 0.507455 0.874691
486 1 0.629267 0.509591 0.864014
487 1 0.75533 0.498353 0.868718
488 1 0.871389 0.503848 0.875382
489 1 1.00482 0.62599 0.871117
490 1 0.128006 0.625049 0.873641
491 1 0.254211 0.628152 0.874228
492 1 0.376562 0.625404 0.873827
493 1 0.49917 0.630942 0.870929
494 1 0.628676 0.627194 0.868613
495 1 0.755055 0.619326 0.877862
496 1 0.877255 0.633515 0.876567
497 1 0.00677891 0.74163 0.872604
498 1 0.130485 0.742689 0.876952
499 1 0.249531 0.750723 0.878046
500 1 0.375234 0.748965 0.875272
501 1 0.49314 0.758046 0.872421
502 1 0.619865 0.746039 0.877816
503 1 0.74318 0.747458 0.881365
504 1 0.872626 0.753151 0.879598
505 1 0.00568845 0.874446 0.876149
506 1 0.134966 0.879287 0.875523
507 1 0.251837 0.875785 0.884345