ITEM: TIMESTEP
0
ITEM: NUMBER OF ATOMS
512
ITEM: BOX BOUNDS xy xz yz pp pp pp
0.0000000000000000e+00 4.6146935159999998e+01 1.1536733860000000e+01
0.0000000000000000e+00 2.6642945210000001e+01 1.1536733860000000e+01
0.0000000000000000e+00 1.8839407219999998e+01 6.6607362999999999e+00
ITEM: ATOMS id type xs ys zs
1 1 0 0 0
2 1 0.125 0 0
3 1 0.25 0 0
4 1 0.375 0 0
5 1 0.5 0 0
6 1 0.625 0 0
7 1 0.75 0 0
8 1 0.875 0 0
9 1 1 0.125 0
10 1 0.125 0.125 0
11 1 0.25 0.125 0
12 1 0.375 0.125 0
13 1 0.5 0.125 0
14 1 0.625 0.125 0
15 1 0.75 0.125 0
16 1 0.875 0.125 0
17 1 1 0.25 0
18 1 0.125 0.25 0
19 1 0.25 0.25 0
20 1 0.375 0.25 0
21 1 0.5 0.25 0
22 1 0.625 0.25 0
23 1 0.75 0.25 0
24 1 0.875 0.25 0
25 1 1 0.375 0
26 1 0.125 0.375 0
27 1 0.25 0.375 0
28 1 0.375 0.375 0
29 1 0.5 0.375 0
30 1 0.625 0.375 0
31 1 0.75 0.375 0
32 1 0.875 0.375 0
33 1 1 0.5 0
34 1 0.125 0.5 0
35 1 0.25 0.5 0
36 1 0.375 0.5 0
37 1 0.5 0.5 0
38 1 0.625 0.5 0
39 1 0.75 0.5 0
40 1 0.875 0.5 0
41 1 1 0.625 0
42 1 0.125 0.625 0
43 1 0.25 0.625 0
44 1 0.375 0.625 0
45 1 0.5 0.625 0
46 1 0.625 0.625 0
47 1 0.75 0.625 0
48 1 0.875 0.625 0
49 1 1 0.75 0
50 1 0.125 0.75 0
51 1 0.25 0.75 0
52 1 0.375 0.75 0
53 1 0.5 0.75 0
54 1 0.625 0.75 0
55 1 0.75 0.75 0
56 1 0.875 0.75 0
57 1 1 0.875 0
58 1 0.125 0.875 0
59 1 0.25 0.875 0
60 1 0.375 0.875 0
61 1 0.5 0.875 0
62 1 0.625 0.875 0
63 1 0.75 0.875 0
64 1 0.875 0.875 0
65 1 1 5.64696e-10 0.125
66 1 0.125 5.64696e-10 0.125
67 1 0.25 5.64696e-10 0.125
68 1 0.375 5.64696e-10 0.125
69 1 0.5 5.64696e-10 0.125
70 1 0.625 5.64696e-10 0.125
71 1 0.75 5.64696e-10 0.125
72 1 0.875 5.64696e-10 0.125
73 1 1 0.125 0.125
74 1 0.125 0.125 0.125
75 1 0.25 0.125 0.125
76 1 0.375 0.125 0.125
77 1 0.5 0.125 0.125
78 1 0.625 0.125 0.125
79 1 0.75 0.125 0.125
80 1 0.875 0.125 0.125
81 1 1 0.25 0.125
82 1 0.125 0.25 0.125
83 1 0.25 0.25 0.125
84 1 0.375 0.25 0.125
85 1 0.5 0.25 0.125
86 1 0.625 0.25 0.125
87 1 0.75 0.25 0.125
88 1 0.875 0.25 0.125
89 1 1 0.375 0.125
90 1 0.125 0.375 0.125
91 1 0.25 0.375 0.125
92 1 0.375 0.375 0.125
93 1 0.5 0.375 0.125
94 1 0.625 0.375 0.125
95 1 0.75 0.375 0.125
96 1 0.875 0.375 0.125
97 1 1 0.5 0.125
98 1 0.125 0.5 0.125
99 1 0.25 0.5 0.125
100 1 0.375 0.5 0.125
101 1 0.5 0.5 0.125
102 1 0.625 0.5 0.125
103 1 0.75 0.5 0.125
104 1 0.875 0.5 0.125
105 1 1 0.625 0.125
106 1 0.125 0.625 0.125
107 1 0.25 0.625 0.125
108 1 0.375 0.625 0.125
109 1 0.5 0.625 0.125
110 1 0.625 0.625 0.125
111 1 0.75 0.625 0.125
112 1 0.875 0.625 0.125
113 1 1 0.75 0.125
114 1 0.125 0.75 0.125
115 1 0.25 0.75 0.125
116 1 0.375 0.75 0.125
117 1 0.5 0.75 0.125
118 1 0.625 0.75 0.125
119 1 0.75 0.75 0.125
120 1 0.875 0.75 0.125
121 1 1 0.875 0.125
122 1 0.125 0.875 0.125
123 1 0.25 0.875 0.125
124 1 0.375 0.875 0.125
125 1 0.5 0.875 0.125
126 1 0.625 0.875 0.125
127 1 0.75 0.875 0.125
128 1 0.875 0.875 0.125
129 1 1 4.47009e-10 0.25
130 1 0.125 4.47009e-10 0.25
131 1 0.25 4.47009e-10 0.25
132 1 0.375 4.47009e-10 0.25
133 1 0.5 4.47009e-10 0.25
134 1 0.625 4.47009e-10 0.25
135 1 0.75 4.47009e-10 0.25
136 1 0.875 4.47009e-10 0.25
137 1 1 0.125 0.25
138 1 0.125 0.125 0.25
139 1 0.25 0.125 0.25
140 1 0.375 0.125 0.25
141 1 0.5 0.125 0.25
142 1 0.625 0.125 0.25
143 1 0.75 0.125 0.25
144 1 0.875 0.125 0.25
145 1 1 0.25 0.25
146 1 0.125 0.25 0.25
147 1 0.25 0.25 0.25
148 1 0.375 0.25 0.25
149 1 0.5 0.25 0.25
150 1 0.625 0.25 0.25
151 1 0.75 0.25 0.25
152 1 0.875 0.25 0.25
153 1 1 0.375 0.25
154 1 0.125 0.375 0.25
155 1 0.25 0.375 0.25
156 1 0.375 0.375 0.25
157 1 0.5 0.375 0.25
158 1 0.625 0.375 0.25
159 1 0.75 0.375 0.25
160 1 0.875 0.375 0.25
161 1 1 0.5 0.25
162 1 0.125 0.5 0.25
163 1 0.25 0.5 0.25
164 1 0.375 0.5 0.25
165 1 0.5 0.5 0.25
166 1 0.625 0.5 0.25
167 1 0.75 0.5 0.25
168 1 0.875 0.5 0.25
169 1 1 0.625 0.25
170 1 0.125 0.625 0.25
171 1 0.25 0.625 0.25
172 1 0.375 0.625 0.25
173 1 0.5 0.625 0.25
174 1 0.625 0.625 0.25
175 1 0.75 0.625 0.25
176 1 0.875 0.625 0.25
177 1 1 0.75 0.25
178 1 0.125 0.75 0.25
179 1 0.25 0.75 0.25
180 1 0.375 0.75 0.25
181 1 0.5 0.75 0.25
182 1 0.625 0.75 0.25
183 1 0.75 0.75 0.25
184 1 0.875 0.75 0.25
185 1 1 0.875 0.25
186 1 0.125 0.875 0.25
187 1 0.25 0.875 0.25
188 1 0.375 0.875 0.25
189 1 0.5 0.875 0.25
190 1 0.625 0.875 0.25
191 1 0.75 0.875 0.25
192 1 0.875 0.875 0.25
193 1 1 5.11261e-10 0.375
194 1 0.125 5.11261e-10 0.375
195 1 0.25 5.11261e-10 0.375
196 1 0.375 5.11261e-10 0.375
197 1 0.5 5.11261e-10 0.375
198 1 0.625 5.11261e-10 0.375
199 1 0.75 5.11261e-10 0.375
200 1 0.875 5.11261e-10 0.375
201 1 1 0.125 0.375
202 1 0.125 0.125 0.375
203 1 0.25 0.125 0.375
204 1 0.375 0.125 0.375
205 1 0.5 0.125 0.375
206 1 0.625 0.125 0.375
207 1 0.75 0.125 0.375
208 1 0.875 0.125 0.375
209 1 1 0.25 0.375
210 1 0.125 0.25 0.375
211 1 0.25 0.25 0.375
212 1 0.375 0.25 0.375
213 1 0.5 0.25 0.375
214 1 0.625 0.25 0.375
215 1 0.75 0.25 0.375
216 1 0.875 0.25 0.375
217 1 1 0.375 0.375
218 1 0.125 0.375 0.375
219 1 0.25 0.375 0.375
220 1 0.375 0.375 0.375
221 1 0.5 0.375 0.375
222 1 0.625 0.375 0.375
223 1 0.75 0.375 0.375
224 1 0.875 0.375 0.375
225 1 1 0.5 0.375
226 1 0.125 0.5 0.375
227 1 0.25 0.5 0.375
228 1 0.375 0.5 0.375
229 1 0.5 0.5 0.375
230 1 0.625 0.5 0.375
231 1 0.75 0.5 0.375
232 1 0.875 0.5 0.375
233 1 1 0.625 0.375
234 1 0.125 0.625 0.375
235 1 0.25 0.625 0.375
236 1 0.375 0.625 0.375
237 1 0.5 0.625 0.375
238 1 0.625 0.625 0.375
239 1 0.75 0.625 0.375
240 1 0.875 0.625 0.375
241 1 1 0.75 0.375
242 1 0.125 0.75 0.375
243 1 0.25 0.75 0.375
244 1 0.375 0.75 0.375
245 1 0.5 0.75 0.375
246 1 0.625 0.75 0.375
247 1 0.75 0.75 0.375
248 1 0.875 0.75 0.375
249 1 1 0.875 0.375
250 1 0.125 0.875 0.375
251 1 0.25 0.875 0.375
252 1 0.375 0.875 0.375
253 1 0.5 0.875 0.375
254 1 0.625 0.875 0.375
255 1 0.75 0.875 0.375
256 1 0.875 0.875 0.375
257 1 1 7.00624e-11 0.5
258 1 0.125 7.00624e-11 0.5
259 1 0.25 7.00624e-11 0.5
260 1 0.375 7.00624e-11 0.5
261 1 0.5 7.00624e-11 0.5
262 1 0.625 7.00624e-11 0.5
263 1 0.75 7.00624e-11 0.5
264 1 0.875 7.00624e-11 0.5
265 1 1 0.125 0.5
266 1 0.125 0.125 0.5
267 1 0.25 0.125 0.5
268 1 0.375 0.125 0.5
269 1 0.5 0.125 0.5
270 1 0.625 0.125 0.5
271 1 0.75 0.125 0.5
272 1 0.875 0.125 0.5
273 1 1 0.25 0.5
274 1 0.125 0.25 0.5
275 1 0.25 0.25 0.5
276 1 0.375 0.25 0.5
277 1 0.5 0.25 0.5
278 1 0.625 0.25 0.5
279 1 0.75 0.25 0.5
280 1 0.875 0.25 0.5
281 1 1 0.375 0.5
282 1 0.125 0.375 0.5
283 1 0.25 0.375 0.5
284 1 0.375 0.375 0.5
285 1 0.5 0.375 0.5
286 1 0.625 0.375 0.5
287 1 0.75 0.375 0.5
288 1 0.875 0.375 0.5
289 1 1 0.5 0.5
290 1 0.125 0.5 0.5
291 1 0.25 0.5 0.5
292 1 0.375 0.5 0.5
293 1 0.5 0.5 0.5
294 1 0.625 0.5 0.5
295 1 0.75 0.5 0.5
296 1 0.875 0.5 0.5
297 1 1 0.625 0.5
298 1 0.125 0.625 0.5
299 1 0.25 0.625 0.5
300 1 0.375 0.625 0.5
301 1 0.5 0.625 0.5
302 1 0.625 0.625 0.5
303 1 0.75 0.625 0.5
304 1 0.875 0.625 0.5
305 1 1 0.75 0.5
306 1 0.125 0.75 0.5
307 1 0.25 0.75 0.5
308 1 0.375 0.75 0.5
309 1 0.5 0.75 0.5
310 1 0.625 0.75 0.5
311 1 0.75 0.75 0.5
312 1 0.875 0.75 0.5
313 1 1 0.875 0.5
314 1 0.125 0.875 0.5
315 1 0.25 0.875 0.5
316 1 0.375 0.875 0.5
317 1 0.5 0.875 0.5
318 1 0.625 0.875 0.5
319 1 0.75 0.875 0.5
320 1 0.875 0.875 0.5
321 1 1 7.81336e-10 0.625
322 1 0.125 7.81336e-10 0.625
323 1 0.25 7.81336e-10 0.625
324 1 0.375 7.81336e-10 0.625
325 1 0.5 7.81336e-10 0.625
326 1 0.625 7.81336e-10 0.625
327 1 0.75 7.81336e-10 0.625
328 1 0.875 7.81336e-10 0.625
329 1 1 0.125 0.625
330 1 0.125 0.125 0.625
331 1 0.25 0.125 0.625
332 1 0.375 0.125 0.625
333 1 0.5 0.125 0.625
334 1 0.625 0.125 0.625
335 1 0.75 0.125 0.625
336 1 0.875 0.125 0.625
337 1 1 0.25 0.625
338 1 0.125 0.25 0.625
339 1 0.25 0.25 0.625
340 1 0.375 0.25 0.625
341 1 0.5 0.25 0.625
342 1 0.625 0.25 0.625
343 1 0.75 0.25 0.625
344 1 0.875 0.25 0.625
345 1 1 0.375 0.625
346 1 0.125 0.375 0.625
347 1 0.25 0.375 0.625
348 1 0.375 0.375 0.625
349 1 0.5 0.375 0.625
350 1 0.625 0.375 0.625
351 1 0.75 0.375 0.625
352 1 0.875 0.375 0.625
353 1 1 0.5 0.625
354 1 0.125 0.5 0.625
355 1 0.25 0.5 0.625
356 1 0.375 0.5 0.625
357 1 0.5 0.5 0.625
358 1 0.625 0.5 0.625
359 1 0.75 0.5 0.625
360 1 0.875 0.5 0.625
361 1 1 0.625 0.625
362 1 0.125 0.625 0.625
363 1 0.25 0.625 0.625
364 1 0.375 0.625 0.625
365 1 0.5 0.625 0.625
366 1 0.625 0.625 0.625
367 1 0.75 0.625 0.625
368 1 0.875 0.625 0.625
369 1 1 0.75 0.625
370 1 0.125 0.75 0.625
371 1 0.25 0.75 0.625
372 1 0.375 0.75 0.625
373 1 0.5 0.75 0.625
374 1 0.625 0.75 0.625
375 1 0.75 0.75 0.625
376 1 0.875 0.75 0.625
377 1 1 0.875 0.625
378 1 0.125 0.875 0.625
379 1 0.25 0.875 0.625
380 1 0.375 0.875 0.625
381 1 0.5 0.875 0.625
382 1 0.625 0.875 0.625
383 1 0.75 0.875 0.625
384 1 0.875 0.875 0.625
385 1 1 3.40138e-10 0.75
386 1 0.125 3.40138e-10 0.75
387 1 0.25 3.40138e-10 0.75
388 1 0.375 3.40138e-10 0.75
389 1 0.5 3.40138e-10 0.75
390 1 0.625 3.40138e-10 0.75
391 1 0.75 3.40138e-10 0.75
392 1 0.875 3.40138e-10 0.75
393 1 1 0.125 0.75
394 1 0.125 0.125 0.75
395 1 0.25 0.125 0.75
396 1 0.375 0.125 0.75
397 1 0.5 0.125 0.75
398 1 0.625 0.125 0.75
399 1 0.75 0.125 0.75
400 1 0.875 0.125 0.75
401 1 1 0.25 0.75
402 1 0.125 0.25 0.75
403 1 0.25 0.25 0.75
404 1 0.375 0.25 0.75
405 1 0.5 0.25 0.75
406 1 0.625 0.25 0.75
407 1 0.75 0.25 0.75
408 1 0.875 0.25 0.75
409 1 1 0.375 0.75
410 1 0.125 0.375 0.75
411 1 0.25 0.375 0.75
412 1 0.375 0.375 0.75
413 1 0.5 0.375 0.75
414 1 0.625 0.375 0.75
415 1 0.75 0.375 0.75
416 1 0.875 0.375 0.75
417 1 1 0.5 0.75
418 1 0.125 0.5 0.75
419 1 0.25 0.5 0.75
420 1 0.375 0.5 0.75
421 1 0.5 0.5 0.75
422 1 0.625 0.5 0.75
423 1 0.75 0.5 0.75
424 1 0.875 0.5 0.75
425 1 1 0.625 0.75
426 1 0.125 0.625 0.75
427 1 0.25 0.625 0.75
428 1 0.375 0.625 0.75
429 1 0.5 0.625 0.75
430 1 0.625 0.625 0.75
431 1 0.75 0.625 0.75
432 1 0.875 0.625 0.75
433 1 1 0.75 0.75
434 1 0.125 0.75 0.75
435 1 0.25 0.75 0.75
436 1 0.375 0.75 0.75
437 1 0.5 0.75 0.75
438 1 0.625 0.75 0.75
439 1 0.75 0.75 0.75
440 1 0.875 0.75 0.75
441 1 1 0.875 0.75
442 1 0.125 0.875 0.75
443 1 0.25 0.875 0.75
444 1 0.375 0.875 0.75
445 1 0.5 0.875 0.75
446 1 0.625 0.875 0.75
447 1 0.75 0.875 0.75
448 1 0.875 0.875 0.75
449 1 1 4.04389e-10 0.875
450 1 0.125 4.04389e-10 0.875
451 1 0.25 4.04389e-10 0.875
452 1 0.375 4.04389e-10 0.875
453 1 0.5 4.04389e-10 0.875
454 1 0.625 4.04389e-10 0.875
455 1 0.75 4.04389e-10 0.875
456 1 0.875 4.04389e-10 0.875
457 1 1 0.125 0.875
458 1 0.125 0.125 0.875
459 1 0.25 0.125 0.875
460 1 0.375 0.125 0.875
461 1 0.5 0.125 0.875
462 1 0.625 0.125 0.875
463 1 0.75 0.125 0.875
464 1 0.875 0.125 0.875
465 1 1 0.25 0.875
466 1 0.125 0.25 0.875
467 1 0.25 0.25 0.875
468 1 0.375 0.25 0.875
469 1 0.5 0.25 0.875
470 1 0.625 0.25 0.875
471 1 0.75 0.25 0.875
472 1 0.875 0.25 0.875
473 1 1 0.375 0.875
474 1 0.125 0.375 0.875
475 1 0.25 0.375 0.875
476 1 0.375 0.375 0.875
477 1 0.5 0.375 0.875
478 1 0.625 0.375 0.875
479 1 0.75 0.375 0.875
480 1 0.875 0.375 0.875
481 1 1 0.5 0.875
482 1 0.125 0.5 0.875
483 1 0.25 0.5 0.875
484 1 0.375 0.5 0.875
485 1 0.5 0.5 0.875
486 1 0.625 0.5 0.875
487 1 0.75 0.5 0.875
488 1 0.875 0.5 0.875
489 1 1 0.625 0.875
490 1 0.125 0.625 0.875
491 1 0.25 0.625 0.875
492 1 0.375 0.625 0.875
493 1 0.5 0.625 0.875
494 1 0.625 0.625 0.875
495 1 0.75 0.625 0.875
496 1 0.875 0.625 0.875
497 1 1 0.75 0.875
498 1 0.125 0.75 0.875
499 1 0.25 0.75 0.875
500 1 0.375 0.75 0.875
501 1 0.5 0.75 0.875
502 1 0.625 0.75 0.875
503 1 0.75 0.75 0.875
504 1 0.875 0.75 0.875
505 1 1 0.875 0.875
506 1 0.125 0.875 0.875
507 1 0.25 0.875 0.875
508 1 0.375 0.875 0.875
509 1 0.5 0.875 0.875
510 1 0.625 0.875 0.875
511 1 0.75 0.875 0.875
512 1 0.875 0.875 0.875
ITEM: TIMESTEP
50000
ITEM: NUMBER OF ATOMS
512
ITEM: BOX BOUNDS xy xz yz pp pp pp
-2.9360833449427304e-02 4.6235017661059871e+01 1.1566094693805399e+01
-2.5427227584531309e-02 2.6685323922631412e+01 1.1566094693805399e+01
-2.3973020054510741e-02 1.8863380240054443e+01 6.6776877850475378e+00
ITEM: ATOMS id type xs ys zs
1 1 -0.0010851 0.00606819 -0.00100572
2 1 0.126831 -0.00166766 0.0101653
3 1 0.249193 0.00192206 0.00293753
4 1 0.372707 0.00453339 0.00095031
5 1 0.49927 -0.00390042 -0.00202779
6 1 0.628255 0.000704167 -0.00795304
7 1 0.750176 0.00988549 -0.0038872
8 1 0.883967 0.00980983 -0.0060715
9 1 1.0105 0.125064 -0.00714346
10 1 0.119878 0.130137 0.000927395
11 1 0.251772 0.130352 0.00111683
12 1 0.379171 0.125797 0.00072188
13 1 0.49759 0.129393 -0.00147376
14 1 0.629028 0.123532 -0.00427114
15 1 0.752463 0.127867 -0.00166876
16 1 0.873975 0.136956 -0.00737765
17 1 0.998688 0.240777 0.00630891
18 1 0.116785 0.261312 0.0011111
19 1 0.254643 0.251824 -0.00335017
20 1 0.368997 0.251039 0.00447635
21 1 0.495812 0.253664 -0.00323163
22 1 0.622428 0.252824 -0.00668661
23 1 0.744148 0.256972 -0.00705144
24 1 0.882135 0.250748 -0.00848275
25 1 1.00133 0.372744 0.00504931
26 1 0.126845 0.379574 -0.00135154
27 1 0.247551 0.377643 0.00107152
28 1 0.372744 0.384328 -0.0106389
29 1 0.501851 0.376262 0.000266391
30 1 0.630092 0.380513 -0.00628599
31 1 0.749705 0.37639 4.46653e-05
32 1 0.876269 0.374168 0.00139652
33 1 0.996491 0.497979 0.00462166
34 1 0.121096 0.501545 0.00175246
35 1 0.242832 0.504648 0.00130035
36 1 0.372106 0.50109 0.00254476
37 1 0.492848 0.499175 0.00497829
38 1 0.624559 0.496226 0.00169208
39 1 0.745819 0.494183 0.0123228
40 1 0.880745 0.497748 -0.00536723
41 1 0.996819 0.626503 -0.0021152
42 1 0.130638 0.622688 -0.00328674
43 1 0.254412 0.624324 -0.00747964
44 1 0.373164 0.622269 0.00627968
45 1 0.503831 0.624206 -0.000546749
46 1 0.620859 0.629627 -0.0043753
47 1 0.753733 0.621302 -0.0019624
48 1 0.875105 0.628102 0.000269436
49 1 0.996848 0.749508 0.0107016
50 1 0.133671 0.74581 0.00163672
51 1 0.254933 0.747101 0.00347369
52 1 0.38346 0.747736 -0.00840179
53 1 0.499687 0.748373 0.00270859
54 1 0.63078 0.753821 -0.0016037
55 1 0.752209 0.747271 0.000714151
56 1 0.883894 0.743282 0.00563104
57 1 1.003 0.863949 0.00743691
58 1 0.12928 0.870651 0.00893196
59 1 0.254802 0.875811 -0.00549717
60 1 0.380726 0.868254 -0.00435213
61 1 0.496456 0.872434 0.000341407
62 1 0.624601 0.869821 0.000699958
63 1 0.750545 0.874828 -0.0048791
64 1 0.871355 0.878336 0.00486683
65 1 1.00387 -0.000350146 0.119747
66 1 0.129592 -0.00156207 0.129951
67 1 0.254725 -0.0071011 0.129986
68 1 0.374741 -0.00177156 0.118569
69 1 0.501872 0.00143698 0.125382
70 1 0.61671 0.00439882 0.120793
71 1 0.750514 0.00323841 0.110842
72 1 0.871681 0.00414582 0.122142
73 1 0.995392 0.122503 0.133854
74 1 0.126011 0.122784 0.126087
75 1 0.242964 0.12897 0.123295
76 1 0.370263 0.130941 0.124632
77 1 0.498029 0.135207 0.118076
78 1 0.620965 0.123701 0.122972
79 1 0.744968 0.120353 0.12403
80 1 0.868795 0.125135 0.125853
81 1 0.99025 0.247011 0.128099
82 1 0.112844 0.2447 0.130242
83 1 0.237336 0.25427 0.126938
84 1 0.367199 0.255855 0.123555
85 1 0.490599 0.24899 0.128947
86 1 0.623647 0.249087 0.123591
87 1 0.74772 0.244823 0.11742
88 1 0.872204 0.246494 0.126829
89 1 0.994515 0.376069 0.128214
90 1 0.11666 0.371233 0.137912
91 1 0.249231 0.382833 0.118733
92 1 0.372658 0.376712 0.124615
93 1 0.49328 0.370471 0.135162
94 1 0.621489 0.370304 0.125924
95 1 0.744813 0.358404 0.133344
96 1 0.872797 0.370912 0.122893
97 1 0.996941 0.496806 0.128681
98 1 0.120588 0.504635 0.120714
99 1 0.251776 0.498288 0.126814
100 1 0.36973 0.492167 0.132832
101 1 0.496673 0.499645 0.127096
102 1 0.622084 0.498754 0.125639
103 1 0.751269 0.496592 0.126555
104 1 0.870954 0.49476 0.124111
105 1 1.00209 0.617011 0.130917
106 1 0.122422 0.624386 0.12557
107 1 0.245536 0.623225 0.131297
108 1 0.375968 0.633117 0.117064
109 1 0.493932 0.613825 0.137362
110 1 0.634567 0.62385 0.116949
111 1 0.753044 0.62209 0.125425
112 1 0.874731 0.615146 0.129218
113 1 1.002 0.748864 0.127609
114 1 0.115741 0.750104 0.137708
115 1 0.248524 0.752959 0.120564
116 1 0.375968 0.747549 0.121008
117 1 0.498081 0.751752 0.128539
118 1 0.634385 0.742366 0.127625
119 1 0.758702 0.757001 0.118447
120 1 0.881312 0.747379 0.12743
121 1 1.00587 0.873819 0.123667
122 1 0.130761 0.872848 0.128218
123 1 0.251517 0.874905 0.128925
124 1 0.375391 0.864697 0.128051
125 1 0.503861 0.876643 0.125969
126 1 0.628444 0.879023 0.120719
127 1 0.754046 0.877807 0.122712
128 1 0.872865 0.878507 0.123368
129 1 1.01136 -0.00777034 0.246562
130 1 0.133423 -0.00487579 0.252846
131 1 0.254348 -0.000659538 0.24867
132 1 0.378491 -0.00325373 0.245898
133 1 0.504921 -0.0064218 0.248084
134 1 0.630798 0.00681603 0.238842
135 1 0.755151 0.00184856 0.246277
136 1 0.883627 -0.00118605 0.250661
137 1 1.00355 0.122309 0.247568
138 1 0.11948 0.128542 0.252196
139 1 0.249921 0.124195 0.242219
140 1 0.379912 0.126705 0.243475
141 1 0.494015 0.123782 0.24873
142 1 0.615292 0.125989 0.252941
143 1 0.745702 0.12469 0.250121
144 1 0.868817 0.119692 0.256324
145 1 0.997622 0.251152 0.249111
146 1 0.115985 0.254048 0.252081
147 1 0.242047 0.254353 0.244283
148 1 0.365001 0.252796 0.255424
149 1 0.500666 0.243055 0.254131
150 1 0.627698 0.247041 0.245486
151 1 0.751502 0.232007 0.253632
152 1 0.86533 0.24036 0.258195
153 1 0.988769 0.369621 0.25694
154 1 0.123864 0.376454 0.248972
155 1 0.246606 0.37544 0.254382
156 1 0.381876 0.365716 0.259326
157 1 0.502096 0.380878 0.249698
158 1 0.62739 0.371093 0.247667
159 1 0.747175 0.376338 0.248528
160 1 0.862796 0.377256 0.253365
161 1 1.00132 0.499473 0.247722
162 1 0.120374 0.505271 0.245712
163 1 0.251943 0.493807 0.254784
164 1 0.375111 0.499874 0.250216
165 1 0.495205 0.506151 0.254028
166 1 0.621711 0.497512 0.253269
167 1 0.745454 0.495567 0.258787
168 1 0.876171 0.494823 0.245786
169 1 1.00264 0.626537 0.249913
170 1 0.121164 0.619423 0.247117
171 1 0.252538 0.632188 0.244512
172 1 0.363064 0.62873 0.260698
173 1 0.503988 0.625166 0.244485
174 1 0.635998 0.615457 0.249047
175 1 0.750628 0.62805 0.244086
176 1 0.8698 0.622146 0.258337
177 1 0.998757 0.750947 0.251563
178 1 0.130868 0.741248 0.251899
179 1 0.256644 0.751199 0.243333
180 1 0.37232 0.748721 0.253288
181 1 0.506989 0.748829 0.250106
182 1 0.632998 0.761602 0.238485
183 1 0.757497 0.750977 0.250657
184 1 0.872107 0.74926 0.259595
185 1 1.01105 0.867094 0.251082
186 1 0.130029 0.872076 0.256849
187 1 0.251454 0.867437 0.256709
188 1 0.380157 0.877515 0.241201
189 1 0.505682 0.864303 0.251662
190 1 0.626016 0.888311 0.244108
191 1 0.755158 0.883645 0.241359
192 1 0.87698 0.883561 0.242915
193 1 1.00127 -0.000908706 0.376621
194 1 0.122412 0.00464984 0.37316
195 1 0.256453 0.00291582 0.372617
196 1 0.378183 -0.00434392 0.375635
197 1 0.503335 -0.00197892 0.370003
198 1 0.632499 -0.00383783 0.371022
199 1 0.756351 -0.00380034 0.380564
200 1 0.884523 -0.00733744 0.375401
201 1 1.0008 0.128802 0.372614
202 1 0.124474 0.126134 0.377812
203 1 0.248671 0.130929 0.363958
204 1 0.370938 0.132047 0.37066
205 1 0.503557 0.114318 0.377423
206 1 0.632752 0.124171 0.372274
207 1 0.756932 0.113614 0.377195
208 1 0.882135 0.118862 0.377284
209 1 0.995725 0.248477 0.377391
210 1 0.127062 0.244588 0.374018
211 1 0.249898 0.253214 0.367581
212 1 0.367785 0.250235 0.375732
213 1 0.498478 0.249887 0.373324
214 1 0.633729 0.24445 0.370988
215 1 0.752451 0.240648 0.376402
216 1 0.873346 0.245493 0.382041
217 1 0.99094 0.378006 0.371828
218 1 0.122366 0.368871 0.380879
219 1 0.243241 0.377915 0.375273
220 1 0.374348 0.375858 0.378101
221 1 0.49884 0.382594 0.372011
222 1 0.623164 0.370357 0.373062
223 1 0.744905 0.370224 0.378277
224 1 0.870019 0.369856 0.383893
225 1 1.00222 0.506602 0.362862
226 1 0.121148 0.503947 0.375295
227 1 0.248544 0.510721 0.368847
228 1 0.369802 0.505457 0.385422
229 1 0.496547 0.5 0.380039
230 1 0.631461 0.491661 0.373127
231 1 0.757779 0.495945 0.370285
232 1 0.867819 0.495693 0.386112
233 1 0.996864 0.627356 0.378248
234 1 0.119394 0.62059 0.382316
235 1 0.238587 0.630128 0.382418
236 1 0.364316 0.625226 0.387464
237 1 0.501615 0.626927 0.360898
238 1 0.621983 0.634906 0.366307
239 1 0.755182 0.61871 0.383785
240 1 0.875249 0.623498 0.381542
241 1 1.00909 0.75196 0.375306
242 1 0.129013 0.750413 0.375437
243 1 0.245847 0.747045 0.381839
244 1 0.37141 0.748585 0.370494
245 1 0.500636 0.744258 0.371187
246 1 0.628191 0.753824 0.370973
247 1 0.752095 0.75114 0.377155
248 1 0.880743 0.749051 0.374141
249 1 1.00903 0.869544 0.374436
250 1 0.130321 0.871232 0.381349
251 1 0.250422 0.872124 0.376636
252 1 0.376943 0.877372 0.369385
253 1 0.501151 0.872326 0.377137
254 1 0.625547 0.876916 0.372439
255 1 0.755612 0.870054 0.37457
256 1 0.880135 0.876667 0.370878
257 1 1.00199 -0.000816363 0.505318
258 1 0.140127 -0.0104032 0.502436
259 1 0.260522 0.00218289 0.496259
260 1 0.380963 -0.000440519 0.493731
261 1 0.502152 0.0018833 0.501842
262 1 0.626618 -0.00432069 0.504788
263 1 0.748511 -0.00339884 0.509025
264 1 0.879673 0.00150077 0.500165
265 1 1.00143 0.11826 0.50997
266 1 0.134091 0.125444 0.497761
267 1 0.254376 0.125104 0.500869
268 1 0.372903 0.124292 0.496668
269 1 0.507723 0.123497 0.497567
270 1 0.627446 0.124182 0.505272
271 1 0.751069 0.12664 0.504553
272 1 0.87658 0.12187 0.501829
273 1 0.993867 0.252385 0.500767
274 1 0.121228 0.252576 0.495691
275 1 0.249335 0.24739 0.506317
276 1 0.374308 0.253095 0.490568
277 1 0.496699 0.253072 0.496686
278 1 0.625997 0.248699 0.506333
279 1 0.752505 0.252066 0.503774
280 1 0.874574 0.242794 0.510035
281 1 0.99823 0.377738 0.494753
282 1 0.124524 0.37633 0.504375
283 1 0.254638 0.370732 0.502827
284 1 0.368218 0.38153 0.503105
285 1 0.502829 0.369816 0.498105
286 1 0.619907 0.372143 0.503921
287 1 0.745322 0.381051 0.49398
288 1 0.865094 0.37064 0.507831
289 1 0.994331 0.495028 0.500149
290 1 0.12351 0.497691 0.505016
291 1 0.245091 0.503119 0.502264
292 1 0.375822 0.491873 0.509986
293 1 0.503086 0.502826 0.493584
294 1 0.627806 0.502881 0.49793
295 1 0.743751 0.495289 0.508016
296 1 0.873775 0.500641 0.498709
297 1 0.997441 0.625575 0.508327
298 1 0.126242 0.624288 0.506028
299 1 0.25221 0.621139 0.50779
300 1 0.37808 0.63022 0.491959
301 1 0.508861 0.625431 0.490925
302 1 0.625436 0.626175 0.496742
303 1 0.755874 0.626516 0.499569
304 1 0.873874 0.628774 0.503949
305 1 1.00425 0.747887 0.500272
306 1 0.123001 0.754854 0.497914
307 1 0.246578 0.758099 0.497691
308 1 0.377822 0.748899 0.500147
309 1 0.503434 0.746611 0.4955
310 1 0.624773 0.745998 0.494959
311 1 0.7526 0.752409 0.499222
312 1 0.877025 0.75417 0.498204
313 1 1.00193 0.871576 0.501936
314 1 0.13188 0.881183 0.494106
315 1 0.250269 0.868346 0.50006
316 1 0.372564 0.872853 0.503449
317 1 0.499765 0.866413 0.503507
318 1 0.628497 0.872854 0.494308
319 1 0.750422 0.871903 0.497413
320 1 0.87576 0.869456 0.502403
321 1 1.00876 -0.00849562 0.621357
322 1 0.132362 -0.00488646 0.623677
323 1 0.244069 -0.00149722 0.630779
324 1 0.374584 -0.00185258 0.623317
325 1 0.50317 0.00318736 0.625058
326 1 0.634587 -0.00498947 0.623757
327 1 0.747788 0.00746944 0.62967
328 1 0.871318 -0.000753587 0.628814
329 1 1.00459 0.120548 0.626324
330 1 0.134338 0.125319 0.616561
331 1 0.256356 0.119392 0.618097
332 1 0.371964 0.13369 0.618017
333 1 0.497631 0.130312 0.627501
334 1 0.628268 0.120654 0.627804
335 1 0.752906 0.127631 0.623094
336 1 0.874909 0.116158 0.631944
337 1 1.0005 0.247555 0.626372
338 1 0.124993 0.246656 0.630108
339 1 0.247517 0.252502 0.62883
340 1 0.375419 0.249304 0.625541
341 1 0.50144 0.259378 0.621824
342 1 0.62588 0.246247 0.625384
343 1 0.753394 0.243206 0.629783
344 1 0.877684 0.244315 0.625343
345 1 1.00475 0.373824 0.61904
346 1 0.127177 0.374745 0.626203
347 1 0.249274 0.3765 0.62125
348 1 0.374163 0.365832 0.627718
349 1 0.494529 0.380328 0.624854
350 1 0.621596 0.374371 0.62769
351 1 0.744274 0.379776 0.625865
352 1 0.875612 0.37725 0.616176
353 1 1.00219 0.500133 0.620497
354 1 0.114331 0.502755 0.631377
355 1 0.246639 0.495266 0.626978
356 1 0.366594 0.492238 0.631279
357 1 0.496392 0.50399 0.617993
358 1 0.621251 0.50222 0.623928
359 1 0.753416 0.501341 0.620779
360 1 0.872891 0.506275 0.622255
361 1 0.998065 0.625401 0.629956
362 1 0.126506 0.620611 0.629528
363 1 0.255742 0.623855 0.626417
364 1 0.373295 0.624758 0.624554
365 1 0.505232 0.624244 0.625481
366 1 0.633049 0.619414 0.62859
367 1 0.752159 0.621335 0.630164
368 1 0.880068 0.628058 0.625684
369 1 1.00765 0.746326 0.629134
370 1 0.132225 0.748258 0.620559
371 1 0.251951 0.748377 0.629342
372 1 0.385922 0.74627 0.61412
373 1 0.499125 0.745869 0.633126
374 1 0.628979 0.754505 0.618861
375 1 0.75362 0.748306 0.61459
376 1 0.877349 0.752293 0.624365
377 1 1.00689 0.870917 0.617225
378 1 0.13299 0.87065 0.623702
379 1 0.254888 0.869755 0.624928
380 1 0.374992 0.881025 0.627234
381 1 0.508498 0.873587 0.621649
382 1 0.630774 0.87456 0.626311
383 1 0.752564 0.872584 0.627123
384 1 0.875892 0.878871 0.628362
385 1 1.00087 0.00433048 0.744526
386 1 0.121675 0.00781521 0.750314
387 1 0.242736 0.00826514 0.747775
388 1 0.372489 0.00650777 0.743728
389 1 0.505159 0.00117003 0.744507
390 1 0.623254 0.00583776 0.754493
391 1 0.739978 0.00480662 0.760173
392 1 0.879412 -0.000554462 0.751877
393 1 1.01046 0.128376 0.743989
394 1 0.129154 0.128467 0.746495
395 1 0.248145 0.124414 0.744065
396 1 0.36945 0.128633 0.750172
397 1 0.49508 0.123478 0.749033
398 1 0.621958 0.134525 0.750397
399 1 0.750791 0.129147 0.753023
400 1 0.874428 0.127921 0.751001
401 1 0.999936 0.253898 0.743038
402 1 0.125165 0.249156 0.751278
403 1 0.244013 0.249923 0.753048
404 1 0.376274 0.248769 0.751602
405 1 0.498964 0.249414 0.747929
406 1 0.616934 0.252936 0.752935
407 1 0.741759 0.258158 0.747094
408 1 0.869552 0.257523 0.738327
409 1 0.99714 0.382789 0.743327
410 1 0.123395 0.37466 0.75421
411 1 0.251746 0.369514 0.747299
412 1 0.372967 0.376194 0.754758
413 1 0.495122 0.371904 0.75479
414 1 0.620641 0.377158 0.752596
415 1 0.749246 0.385558 0.745621
416 1 0.869169 0.383623 0.746965
417 1 0.988673 0.503224 0.752846
418 1 0.124031 0.498029 0.751532
419 1 0.244852 0.499548 0.751875
420 1 0.377191 0.502699 0.746684
421 1 0.497542 0.502935 0.747873
422 1 0.622046 0.50296 0.748927
423 1 0.737368 0.504119 0.763179
424 1 0.873064 0.504189 0.74899
425 1 1.00234 0.624161 0.749829
426 1 0.125277 0.61784 0.755571
427 1 0.244662 0.619519 0.749703
428 1 0.373097 0.625426 0.751573
429 1 0.497131 0.623421 0.750671
430 1 0.616826 0.632434 0.7498
431 1 0.742146 0.633795 0.746418
432 1 0.860664 0.625314 0.756141
433 1 1.00713 0.742832 0.753488
434 1 0.131507 0.74453 0.754445
435 1 0.251497 0.755155 0.747374
436 1 0.374338 0.753085 0.745106
437 1 0.497416 0.75521 0.744433
438 1 0.620196 0.755948 0.750084
439 1 0.75907 0.749825 0.742787
440 1 0.880309 0.754293 0.747508
441 1 1.00915 0.872207 0.742845
442 1 0.125249 0.874558 0.747783
443 1 0.246551 0.875175 0.755381
444 1 0.365792 0.881704 0.752752
445 1 0.501336 0.878553 0.744196
446 1 0.626126 0.875839 0.749862
447 1 0.746358 0.880931 0.745549
448 1 0.872315 0.874995 0.751595
449 1 1.00488 -0.00157661 0.871365
450 1 0.123965 -0.00161259 0.880844
451 1 0.252909 0.00387819 0.875562
452 1 0.371765 0.00656774 0.878459
453 1 0.493913 0.004291 0.879998
454 1 0.622258 -0.00367399 0.878764
455 1 0.742117 0.00903411 0.874415
456 1 0.880602 0.00078343 0.873504
457 1 1.00407 0.124611 0.870648
458 1 0.122065 0.125542 0.873834
459 1 0.244752 0.125265 0.874761
460 1 0.372701 0.125601 0.881637
461 1 0.50058 0.122896 0.872536
462 1 0.621198 0.130236 0.871741
463 1 0.748617 0.136679 0.868939
464 1 0.880587 0.131567 0.872348
465 1 1.00265 0.254064 0.868896
466 1 0.115445 0.255518 0.880129
467 1 0.248901 0.247755 0.872235
468 1 0.375985 0.251213 0.876996
469 1 0.495484 0.245114 0.876148
470 1 0.624743 0.247719 0.875413
471 1 0.747496 0.257097 0.868356
472 1 0.874614 0.256545 0.864303
473 1 1.00113 0.367448 0.879316
474 1 0.112513 0.382749 0.875564
475 1 0.249907 0.370432 0.873223
476 1 0.37384 0.373678 0.877115
477 1 0.496732 0.378039 0.873203
478 1 0.624926 0.387881 0.8684
479 1 0.74736 0.378822 0.871298
480 1 0.881844 0.372454 0.875041
481 1 0.994609 0.501807 0.877881
482 1 0.121418 0.50139 0.877161
483 1 0.25093 0.496769 0.875237
484 1 0.373071 0.504796 0.868881
485 1 0.489888 0.505187 0.875833
486 1 0.616149 0.503709 0.876228
487 1 0.743411 0.510509 0.871092
488 1 0.873072 0.50137 0.877393
489 1 0.998882 0.628152 0.876066
490 1 0.123793 0.620021 0.88063
491 1 0.250272 0.624358 0.876776
492 1 0.375543 0.626552 0.873294
493 1 0.503764 0.623461 0.868311
494 1 0.620866 0.630188 0.871084
495 1 0.744664 0.626538 0.879118
496 1 0.882013 0.623378 0.869491
497 1 1.00739 0.749858 0.866638
498 1 0.125201 0.746761 0.877995
499 1 0.254551 0.750832 0.880637
500 1 0.376598 0.748457 0.870808
501 1 0.505988 0.752277 0.86542
502 1 0.622901 0.749776 0.872684
503 1 0.750982 0.749564 0.87377
504 1 0.873721 0.747886 0.877324
505 1 0.999472 0.8738 0.875255
506 1 0.123259 0.86857 0.883268
507 1 0.247298 0.876179 0.877929
508 1 0.374758 0.872391 0.86842
509 1 0.508133 0.880461 0.868147
510 1 0.62786 0.874235 0.872146
511 1 0.751116 0.870618 0.87871
512 1 0.875991 0.872276 0.876823
ITEM: TIMESTEP
100000
ITEM: NUMBER OF ATOMS
512
ITEM: BOX BOUNDS xy xz yz pp pp pp
-2.8611632902560302e-02 4.6232770059400806e+01 1.1565345493249534e+01