ITEM: TIMESTEP
0
ITEM: NUMBER OF ATOMS
512
ITEM: BOX BOUNDS xy xz yz pp pp pp
0.0000000000000000e+00 4.0899056209999998e+01 1.0224764049999999e+01
0.0000000000000000e+00 2.3613081120000000e+01 1.0224764049999999e+01
0.0000000000000000e+00 1.6696969780000000e+01 5.9032702800000001e+00
ITEM: ATOMS id type xs ys zs
1 1 0 0 0
2 1 0.125 0 0
3 1 0.25 0 0
4 1 0.375 0 0
5 1 0.5 0 0
6 1 0.625 0 0
7 1 0.75 0 0
8 1 0.875 0 0
9 1 4.22136e-11 0.125 0
10 1 0.125 0.125 0
11 1 0.25 0.125 0
12 1 0.375 0.125 0
13 1 0.5 0.125 0
14 1 0.625 0.125 0
15 1 0.75 0.125 0
16 1 0.875 0.125 0
17 1 1 0.25 0
18 1 0.125 0.25 0
19 1 0.25 0.25 0
20 1 0.375 0.25 0
21 1 0.5 0.25 0
22 1 0.625 0.25 0
23 1 0.75 0.25 0
24 1 0.875 0.25 0
25 1 1 0.375 0
26 1 0.125 0.375 0
27 1 0.25 0.375 0
28 1 0.375 0.375 0
29 1 0.5 0.375 0
30 1 0.625 0.375 0
31 1 0.75 0.375 0
32 1 0.875 0.375 0
33 1 2.44504e-10 0.5 0
34 1 0.125 0.5 0
35 1 0.25 0.5 0
36 1 0.375 0.5 0
37 1 0.5 0.5 0
38 1 0.625 0.5 0
39 1 0.75 0.5 0
40 1 0.875 0.5 0
41 1 1 0.625 0
42 1 0.125 0.625 0
43 1 0.25 0.625 0
44 1 0.375 0.625 0
45 1 0.5 0.625 0
46 1 0.625 0.625 0
47 1 0.75 0.625 0
48 1 0.875 0.625 0
49 1 1.22252e-10 0.75 0
50 1 0.125 0.75 0
51 1 0.25 0.75 0
52 1 0.375 0.75 0
53 1 0.5 0.75 0
54 1 0.625 0.75 0
55 1 0.75 0.75 0
56 1 0.875 0.75 0
57 1 1.64466e-10 0.875 0
58 1 0.125 0.875 0
59 1 0.25 0.875 0
60 1 0.375 0.875 0
61 1 0.5 0.875 0
62 1 0.625 0.875 0
63 1 0.75 0.875 0
64 1 0.875 0.875 0
65 1 9.21228e-11 3.32239e-10 0.125
66 1 0.125 3.32239e-10 0.125
67 1 0.25 3.32239e-10 0.125
68 1 0.375 3.32239e-10 0.125
69 1 0.5 3.32239e-10 0.125
70 1 0.625 3.32239e-10 0.125
71 1 0.75 3.32239e-10 0.125
72 1 0.875 3.32239e-10 0.125
73 1 1 0.125 0.125
74 1 0.125 0.125 0.125
75 1 0.25 0.125 0.125
76 1 0.375 0.125 0.125
77 1 0.5 0.125 0.125
78 1 0.625 0.125 0.125
79 1 0.75 0.125 0.125
80 1 0.875 0.125 0.125
81 1 1 0.25 0.125
82 1 0.125 0.25 0.125
83 1 0.25 0.25 0.125
84 1 0.375 0.25 0.125
85 1 0.5 0.25 0.125
86 1 0.625 0.25 0.125
87 1 0.75 0.25 0.125
88 1 0.875 0.25 0.125
89 1 2.94414e-10 0.375 0.125
90 1 0.125 0.375 0.125
91 1 0.25 0.375 0.125
92 1 0.375 0.375 0.125
93 1 0.5 0.375 0.125
94 1 0.625 0.375 0.125
95 1 0.75 0.375 0.125
96 1 0.875 0.375 0.125
97 1 1 0.5 0.125
98 1 0.125 0.5 0.125
99 1 0.25 0.5 0.125
100 1 0.375 0.5 0.125
101 1 0.5 0.5 0.125
102 1 0.625 0.5 0.125
103 1 0.75 0.5 0.125
104 1 0.875 0.5 0.125
105 1 1.72161e-10 0.625 0.125
106 1 0.125 0.625 0.125
107 1 0.25 0.625 0.125
108 1 0.375 0.625 0.125
109 1 0.5 0.625 0.125
110 1 0.625 0.625 0.125
111 1 0.75 0.625 0.125
112 1 0.875 0.625 0.125
113 1 2.14375e-10 0.75 0.125
114 1 0.125 0.75 0.125
115 1 0.25 0.75 0.125
116 1 0.375 0.75 0.125
117 1 0.5 0.75 0.125
118 1 0.625 0.75 0.125
119 1 0.75 0.75 0.125
120 1 0.875 0.75 0.125
121 1 5.38918e-10 0.875 0.125
122 1 0.125 0.875 0.125
123 1 0.25 0.875 0.125
124 1 0.375 0.875 0.125
125 1 0.5 0.875 0.125
126 1 0.625 0.875 0.125
127 1 0.75 0.875 0.125
128 1 0.875 0.875 0.125
129 1 1 1 0.25
130 1 0.125 1 0.25
131 1 0.25 1 0.25
132 1 0.375 1 0.25
133 1 0.5 1 0.25
134 1 0.625 1 0.25
135 1 0.75 1 0.25
136 1 0.875 1 0.25
137 1 1 0.125 0.25
138 1 0.125 0.125 0.25
139 1 0.25 0.125 0.25
140 1 0.375 0.125 0.25
141 1 0.5 0.125 0.25
142 1 0.625 0.125 0.25
143 1 0.75 0.125 0.25
144 1 0.875 0.125 0.25
145 1 1.44686e-10 0.25 0.25
146 1 0.125 0.25 0.25
147 1 0.25 0.25 0.25
148 1 0.375 0.25 0.25
149 1 0.5 0.25 0.25
150 1 0.625 0.25 0.25
151 1 0.75 0.25 0.25
152 1 0.875 0.25 0.25
153 1 1 0.375 0.25
154 1 0.125 0.375 0.25
155 1 0.25 0.375 0.25
156 1 0.375 0.375 0.25
157 1 0.5 0.375 0.25
158 1 0.625 0.375 0.25
159 1 0.75 0.375 0.25
160 1 0.875 0.375 0.25
161 1 2.24337e-11 0.5 0.25
162 1 0.125 0.5 0.25
163 1 0.25 0.5 0.25
164 1 0.375 0.5 0.25
165 1 0.5 0.5 0.25
166 1 0.625 0.5 0.25
167 1 0.75 0.5 0.25
168 1 0.875 0.5 0.25
169 1 6.46474e-11 0.625 0.25
170 1 0.125 0.625 0.25
171 1 0.25 0.625 0.25
172 1 0.375 0.625 0.25
173 1 0.5 0.625 0.25
174 1 0.625 0.625 0.25
175 1 0.75 0.625 0.25
176 1 0.875 0.625 0.25
177 1 3.8919e-10 0.75 0.25
178 1 0.125 0.75 0.25
179 1 0.25 0.75 0.25
180 1 0.375 0.75 0.25
181 1 0.5 0.75 0.25
182 1 0.625 0.75 0.25
183 1 0.75 0.75 0.25
184 1 0.875 0.75 0.25
185 1 1 0.875 0.25
186 1 0.125 0.875 0.25
187 1 0.25 0.875 0.25
188 1 0.375 0.875 0.25
189 1 0.5 0.875 0.25
190 1 0.625 0.875 0.25
191 1 0.75 0.875 0.25
192 1 0.875 0.875 0.25
193 1 1 2.3242e-10 0.375
194 1 0.125 2.3242e-10 0.375
195 1 0.25 2.3242e-10 0.375
196 1 0.375 2.3242e-10 0.375
197 1 0.5 2.3242e-10 0.375
198 1 0.625 2.3242e-10 0.375
199 1 0.75 2.3242e-10 0.375
200 1 0.875 2.3242e-10 0.375
201 1 1.94595e-10 0.125 0.375
202 1 0.125 0.125 0.375
203 1 0.25 0.125 0.375
204 1 0.375 0.125 0.375
205 1 0.5 0.125 0.375
206 1 0.625 0.125 0.375
207 1 0.75 0.125 0.375
208 1 0.875 0.125 0.375
209 1 1 0.25 0.375
210 1 0.125 0.25 0.375
211 1 0.25 0.25 0.375
212 1 0.375 0.25 0.375
213 1 0.5 0.25 0.375
214 1 0.625 0.25 0.375
215 1 0.75 0.25 0.375
216 1 0.875 0.25 0.375
217 1 7.2343e-11 0.375 0.375
218 1 0.125 0.375 0.375
219 1 0.25 0.375 0.375
220 1 0.375 0.375 0.375
221 1 0.5 0.375 0.375
222 1 0.625 0.375 0.375
223 1 0.75 0.375 0.375
224 1 0.875 0.375 0.375
225 1 1.14557e-10 0.5 0.375
226 1 0.125 0.5 0.375
227 1 0.25 0.5 0.375
228 1 0.375 0.5 0.375
229 1 0.5 0.5 0.375
230 1 0.625 0.5 0.375
231 1 0.75 0.5 0.375
232 1 0.875 0.5 0.375
233 1 4.39099e-10 0.625 0.375
234 1 0.125 0.625 0.375
235 1 0.25 0.625 0.375
236 1 0.375 0.625 0.375
237 1 0.5 0.625 0.375
238 1 0.625 0.625 0.375
239 1 0.75 0.625 0.375
240 1 0.875 0.625 0.375
241 1 1 0.75 0.375
242 1 0.125 0.75 0.375
243 1 0.25 0.75 0.375
244 1 0.375 0.75 0.375
245 1 0.5 0.75 0.375
246 1 0.625 0.75 0.375
247 1 0.75 0.75 0.375
248 1 0.875 0.75 0.375
249 1 3.16847e-10 0.875 0.375
250 1 0.125 0.875 0.375
251 1 0.25 0.875 0.375
252 1 0.375 0.875 0.375
253 1 0.5 0.875 0.375
254 1 0.625 0.875 0.375
255 1 0.75 0.875 0.375
256 1 0.875 0.875 0.375
257 1 2.44504e-10 0 0.5
258 1 0.125 0 0.5
259 1 0.25 0 0.5
260 1 0.375 0 0.5
261 1 0.5 0 0.5
262 1 0.625 0 0.5
263 1 0.75 0 0.5
264 1 0.875 0 0.5
265 1 1 0.125 0.5
266 1 0.125 0.125 0.5
267 1 0.25 0.125 0.5
268 1 0.375 0.125 0.5
269 1 0.5 0.125 0.5
270 1 0.625 0.125 0.5
271 1 0.75 0.125 0.5
272 1 0.875 0.125 0.5
273 1 1.22252e-10 0.25 0.5
274 1 0.125 0.25 0.5
275 1 0.25 0.25 0.5
276 1 0.375 0.25 0.5
277 1 0.5 0.25 0.5
278 1 0.625 0.25 0.5
279 1 0.75 0.25 0.5
280 1 0.875 0.25 0.5
281 1 1.64466e-10 0.375 0.5
282 1 0.125 0.375 0.5
283 1 0.25 0.375 0.5
284 1 0.375 0.375 0.5
285 1 0.5 0.375 0.5
286 1 0.625 0.375 0.5
287 1 0.75 0.375 0.5
288 1 0.875 0.375 0.5
289 1 4.89009e-10 0.5 0.5
290 1 0.125 0.5 0.5
291 1 0.25 0.5 0.5
292 1 0.375 0.5 0.5
293 1 0.5 0.5 0.5
294 1 0.625 0.5 0.5
295 1 0.75 0.5 0.5
296 1 0.875 0.5 0.5
297 1 4.22134e-11 0.625 0.5
298 1 0.125 0.625 0.5
299 1 0.25 0.625 0.5
300 1 0.375 0.625 0.5
301 1 0.5 0.625 0.5
302 1 0.625 0.625 0.5
303 1 0.75 0.625 0.5
304 1 0.875 0.625 0.5
305 1 3.66757e-10 0.75 0.5
306 1 0.125 0.75 0.5
307 1 0.25 0.75 0.5
308 1 0.375 0.75 0.5
309 1 0.5 0.75 0.5
310 1 0.625 0.75 0.5
311 1 0.75 0.75 0.5
312 1 0.875 0.75 0.5
313 1 4.0897e-10 0.875 0.5
314 1 0.125 0.875 0.5
315 1 0.25 0.875 0.5
316 1 0.375 0.875 0.5
317 1 0.5 0.875 0.5
318 1 0.625 0.875 0.5
319 1 0.75 0.875 0.5
320 1 0.875 0.875 0.5
321 1 1 1.32602e-10 0.625
322 1 0.125 1.32602e-10 0.625
323 1 0.25 1.32602e-10 0.625
324 1 0.375 1.32602e-10 0.625
325 1 0.5 1.32602e-10 0.625
326 1 0.625 1.32602e-10 0.625
327 1 0.75 1.32602e-10 0.625
328 1 0.875 1.32602e-10 0.625
329 1 1 0.125 0.625
330 1 0.125 0.125 0.625
331 1 0.25 0.125 0.625
332 1 0.375 0.125 0.625
333 1 0.5 0.125 0.625
334 1 0.625 0.125 0.625
335 1 0.75 0.125 0.625
336 1 0.875 0.125 0.625
337 1 1.47379e-11 0.25 0.625
338 1 0.125 0.25 0.625
339 1 0.25 0.25 0.625
340 1 0.375 0.25 0.625
341 1 0.5 0.25 0.625
342 1 0.625 0.25 0.625
343 1 0.75 0.25 0.625
344 1 0.875 0.25 0.625
345 1 3.39281e-10 0.375 0.625
346 1 0.125 0.375 0.625
347 1 0.25 0.375 0.625
348 1 0.375 0.375 0.625
349 1 0.5 0.375 0.625
350 1 0.625 0.375 0.625
351 1 0.75 0.375 0.625
352 1 0.875 0.375 0.625
353 1 1 0.5 0.625
354 1 0.125 0.5 0.625
355 1 0.25 0.5 0.625
356 1 0.375 0.5 0.625
357 1 0.5 0.5 0.625
358 1 0.625 0.5 0.625
359 1 0.75 0.5 0.625
360 1 0.875 0.5 0.625
361 1 2.17029e-10 0.625 0.625
362 1 0.125 0.625 0.625
363 1 0.25 0.625 0.625
364 1 0.375 0.625 0.625
365 1 0.5 0.625 0.625
366 1 0.625 0.625 0.625
367 1 0.75 0.625 0.625
368 1 0.875 0.625 0.625
369 1 2.59242e-10 0.75 0.625
370 1 0.125 0.75 0.625
371 1 0.25 0.75 0.625
372 1 0.375 0.75 0.625
373 1 0.5 0.75 0.625
374 1 0.625 0.75 0.625
375 1 0.75 0.75 0.625
376 1 0.875 0.75 0.625
377 1 9.47767e-11 0.875 0.625
378 1 0.125 0.875 0.625
379 1 0.25 0.875 0.625
380 1 0.375 0.875 0.625
381 1 0.5 0.875 0.625
382 1 0.625 0.875 0.625
383 1 0.75 0.875 0.625
384 1 0.875 0.875 0.625
385 1 2.24335e-11 1 0.75
386 1 0.125 1 0.75
387 1 0.25 1 0.75
388 1 0.375 1 0.75
389 1 0.5 1 0.75
390 1 0.625 1 0.75
391 1 0.75 1 0.75
392 1 0.875 1 0.75
393 1 6.46473e-11 0.125 0.75
394 1 0.125 0.125 0.75
395 1 0.25 0.125 0.75
396 1 0.375 0.125 0.75
397 1 0.5 0.125 0.75
398 1 0.625 0.125 0.75
399 1 0.75 0.125 0.75
400 1 0.875 0.125 0.75
401 1 3.8919e-10 0.25 0.75
402 1 0.125 0.25 0.75
403 1 0.25 0.25 0.75
404 1 0.375 0.25 0.75
405 1 0.5 0.25 0.75
406 1 0.625 0.25 0.75
407 1 0.75 0.25 0.75
408 1 0.875 0.25 0.75
409 1 1 0.375 0.75
410 1 0.125 0.375 0.75
411 1 0.25 0.375 0.75
412 1 0.375 0.375 0.75
413 1 0.5 0.375 0.75
414 1 0.625 0.375 0.75
415 1 0.75 0.375 0.75
416 1 0.875 0.375 0.75
417 1 2.66938e-10 0.5 0.75
418 1 0.125 0.5 0.75
419 1 0.25 0.5 0.75
420 1 0.375 0.5 0.75
421 1 0.5 0.5 0.75
422 1 0.625 0.5 0.75
423 1 0.75 0.5 0.75
424 1 0.875 0.5 0.75
425 1 3.09152e-10 0.625 0.75
426 1 0.125 0.625 0.75
427 1 0.25 0.625 0.75
428 1 0.375 0.625 0.75
429 1 0.5 0.625 0.75
430 1 0.625 0.625 0.75
431 1 0.75 0.625 0.75
432 1 0.875 0.625 0.75
433 1 1.44686e-10 0.75 0.75
434 1 0.125 0.75 0.75
435 1 0.25 0.75 0.75
436 1 0.375 0.75 0.75
437 1 0.5 0.75 0.75
438 1 0.625 0.75 0.75
439 1 0.75 0.75 0.75
440 1 0.875 0.75 0.75
441 1 1.86899e-10 0.875 0.75
442 1 0.125 0.875 0.75
443 1 0.25 0.875 0.75
444 1 0.375 0.875 0.75
445 1 0.5 0.875 0.75
446 1 0.625 0.875 0.75
447 1 0.75 0.875 0.75
448 1 0.875 0.875 0.75
449 1 1.14557e-10 2.3242e-10 0.875
450 1 0.125 2.3242e-10 0.875
451 1 0.25 2.3242e-10 0.875
452 1 0.375 2.3242e-10 0.875
453 1 0.5 2.3242e-10 0.875
454 1 0.625 2.3242e-10 0.875
455 1 0.75 2.3242e-10 0.875
456 1 0.875 2.3242e-10 0.875
457 1 4.39099e-10 0.125 0.875
458 1 0.125 0.125 0.875
459 1 0.25 0.125 0.875
460 1 0.375 0.125 0.875
461 1 0.5 0.125 0.875
462 1 0.625 0.125 0.875
463 1 0.75 0.125 0.875
464 1 0.875 0.125 0.875
465 1 1 0.25 0.875
466 1 0.125 0.25 0.875
467 1 0.25 0.25 0.875
468 1 0.375 0.25 0.875
469 1 0.5 0.25 0.875
470 1 0.625 0.25 0.875
471 1 0.75 0.25 0.875
472 1 0.875 0.25 0.875
473 1 3.16847e-10 0.375 0.875
474 1 0.125 0.375 0.875
475 1 0.25 0.375 0.875
476 1 0.375 0.375 0.875
477 1 0.5 0.375 0.875
478 1 0.625 0.375 0.875
479 1 0.75 0.375 0.875
480 1 0.875 0.375 0.875
481 1 3.59061e-10 0.5 0.875
482 1 0.125 0.5 0.875
483 1 0.25 0.5 0.875
484 1 0.375 0.5 0.875
485 1 0.5 0.5 0.875
486 1 0.625 0.5 0.875
487 1 0.75 0.5 0.875
488 1 0.875 0.5 0.875
489 1 1.94595e-10 0.625 0.875
490 1 0.125 0.625 0.875
491 1 0.25 0.625 0.875
492 1 0.375 0.625 0.875
493 1 0.5 0.625 0.875
494 1 0.625 0.625 0.875
495 1 0.75 0.625 0.875
496 1 0.875 0.625 0.875
497 1 2.36809e-10 0.75 0.875
498 1 0.125 0.75 0.875
499 1 0.25 0.75 0.875
500 1 0.375 0.75 0.875
501 1 0.5 0.75 0.875
502 1 0.625 0.75 0.875
503 1 0.75 0.75 0.875
504 1 0.875 0.75 0.875
505 1 5.61352e-10 0.875 0.875
506 1 0.125 0.875 0.875
507 1 0.25 0.875 0.875
508 1 0.375 0.875 0.875
509 1 0.5 0.875 0.875
510 1 0.625 0.875 0.875
511 1 0.75 0.875 0.875
512 1 0.875 0.875 0.875
ITEM: TIMESTEP
50000
ITEM: NUMBER OF ATOMS
512
ITEM: BOX BOUNDS xy xz yz pp pp pp
-6.3308204042030525e-02 4.1088980822064030e+01 1.0288072254011174e+01
-5.4826512972708130e-02 2.3704458641621766e+01 1.0288072254011174e+01
-5.1690932134606626e-02 1.6748660712134544e+01 5.9398212886484680e+00
ITEM: ATOMS id type xs ys zs
1 1 6.41769e-05 0.00279792 0.00385944
2 1 0.124377 0.00266426 -0.00382123
3 1 0.246438 0.995654 0.00852932
4 1 0.374452 0.998828 0.995214
5 1 0.49225 0.00903249 0.0013502
6 1 0.620759 1.00318 0.994506
7 1 0.750774 0.00207389 0.00268672
8 1 0.878318 0.994785 0.00668636
9 1 0.990742 0.134467 0.001859
10 1 0.128258 0.118521 0.997696
11 1 0.248807 0.12281 0.00717191
12 1 0.371961 0.132936 0.996679
13 1 0.494021 0.130341 -0.000179012
14 1 0.620237 0.114334 0.00518723
15 1 0.746075 0.128085 0.00308877
16 1 0.865293 0.128276 0.00714954
17 1 0.986227 0.259627 0.995607
18 1 0.124612 0.240382 0.0121382
19 1 0.260673 0.248325 -0.00384887
20 1 0.373089 0.247787 0.00463349
21 1 0.499314 0.243012 0.00778972
22 1 0.618852 0.250632 1.00536
23 1 0.743149 0.252241 0.00366569
24 1 0.871215 0.250805 -0.00377038
25 1 1.00099 0.370254 -0.000519683
26 1 0.13019 0.365 0.998075
27 1 0.256527 0.369612 -0.00123029
28 1 0.378793 0.369999 0.00533624
29 1 0.495866 0.368545 0.00431432
30 1 0.624866 0.376408 -0.00298299
31 1 0.750045 0.379391 0.995914
32 1 0.870419 0.378023 0.996319
33 1 0.0029217 0.492913 -0.000653946
34 1 0.133551 0.496591 0.998832
35 1 0.251027 0.501272 -0.00327952
36 1 0.371768 0.505654 -0.000525691
37 1 0.495187 0.494573 1.00426
38 1 0.621039 0.507468 0.996369
39 1 0.747993 0.504709 1.00176
40 1 0.874349 0.500405 1.00059
41 1 0.00749612 0.622266 0.997319
42 1 0.119504 0.632283 1.00071
43 1 0.243176 0.627168 0.00265251
44 1 0.369019 0.615857 1.00559
45 1 0.496675 0.629828 0.999138
46 1 0.623792 0.632547 0.994706
47 1 0.745337 0.628779 0.997682
48 1 0.871918 0.627189 0.995199
49 1 -0.00198719 0.742728 0.999925
50 1 0.121317 0.755974 -0.00213221
51 1 0.249546 0.746421 -0.000832178
52 1 0.372391 0.741201 0.00615985
53 1 0.496043 0.75337 0.99945
54 1 0.615897 0.754794 0.0014663
55 1 0.752465 0.750076 0.992004
56 1 0.88053 0.744824 0.992564
57 1 1.00027 0.880185 -0.00159645
58 1 0.128808 0.877617 0.992611
59 1 0.257255 0.862638 0.998184
60 1 0.376589 0.872939 -2.81082e-05
61 1 0.498968 0.876748 1.00175
62 1 0.622561 0.876905 0.000722032
63 1 0.749794 0.880984 -0.000923863
64 1 0.87448 0.870879 -0.00141922
65 1 0.990151 0.00665641 0.127095
66 1 0.118365 5.97869e-05 0.12632
67 1 0.24643 1.00088 0.125851
68 1 0.368795 0.0080312 0.121438
69 1 0.501832 0.998472 0.127432
70 1 0.62019 0.999639 0.128007
71 1 0.749294 0.00150489 0.123563
72 1 0.871783 0.00832602 0.125467
73 1 1.00262 0.125535 0.122136
74 1 0.127023 0.118353 0.125466
75 1 0.246357 0.122788 0.127094
76 1 0.372041 0.123424 0.127321
77 1 0.500572 0.121089 0.119715
78 1 0.62512 0.122978 0.128278
79 1 0.746532 0.126137 0.129129
80 1 0.875055 0.142448 0.11539
81 1 -0.00115576 0.252568 0.126147
82 1 0.11886 0.245582 0.134963
83 1 0.242551 0.249802 0.130539
84 1 0.371659 0.243364 0.136156
85 1 0.492898 0.24607 0.129859
86 1 0.616158 0.261173 0.126607
87 1 0.749615 0.252729 0.125622
88 1 0.870837 0.258029 0.124757
89 1 0.0018633 0.367588 0.122909
90 1 0.130096 0.366985 0.125727
91 1 0.25203 0.377654 0.120711
92 1 0.37682 0.377404 0.125409
93 1 0.49947 0.379775 0.120964
94 1 0.628676 0.371692 0.123003
95 1 0.74982 0.378834 0.121134
96 1 0.873878 0.375535 0.120412
97 1 0.00211999 0.498445 0.121334
98 1 0.121467 0.498313 0.121271
99 1 0.246347 0.502544 0.125047
100 1 0.365829 0.498511 0.135446
101 1 0.503355 0.496636 0.122485
102 1 0.622748 0.49445 0.121689
103 1 0.744649 0.504953 0.122437
104 1 0.880312 0.49455 0.120484
105 1 0.00299927 0.618943 0.124973
106 1 0.122665 0.631243 0.122
107 1 0.24846 0.624998 0.12595
108 1 0.375325 0.628568 0.125353
109 1 0.500016 0.627225 0.119677
110 1 0.627909 0.624354 0.124406
111 1 0.755651 0.634457 0.112365
112 1 0.882137 0.625709 0.114162
113 1 0.000154739 0.747678 0.125319
114 1 0.12052 0.756034 0.122581
115 1 0.249749 0.750401 0.12082
116 1 0.381109 0.747544 0.127943
117 1 0.503542 0.742874 0.126891
118 1 0.625824 0.749303 0.125774
119 1 0.748082 0.752903 0.122715
120 1 0.871468 0.745467 0.128067
121 1 0.996091 0.875303 0.126691
122 1 0.124325 0.87191 0.12656
123 1 0.255263 0.872021 0.123784
124 1 0.37499 0.87847 0.126187
125 1 0.490406 0.879383 0.128234
126 1 0.626476 0.872962 0.125426
127 1 0.751073 0.875713 0.123461
128 1 0.87374 0.867128 0.12978
129 1 1.00341 1.00043 0.250955
130 1 0.123204 0.999137 0.246066
131 1 0.248414 0.995459 0.246946
132 1 0.369614 1.00354 0.251368
133 1 0.492046 1.00046 0.255097
134 1 0.624361 0.00346775 0.2454
135 1 0.745968 0.00436635 0.253316
136 1 0.875784 0.0040782 0.248636
137 1 0.998468 0.124971 0.253221
138 1 0.126807 0.111828 0.264664
139 1 0.253445 0.126908 0.252617
140 1 0.372377 0.128067 0.255491
141 1 0.496556 0.12213 0.248067
142 1 0.617073 0.126437 0.247799
143 1 0.748009 0.128993 0.249244
144 1 0.869878 0.12831 0.250166
145 1 0.996135 0.246773 0.253045
146 1 0.11652 0.246746 0.253919
147 1 0.242955 0.25792 0.251683
148 1 0.374957 0.244237 0.260369
149 1 0.495942 0.250151 0.254194
150 1 0.623504 0.247104 0.247549
151 1 0.749937 0.24671 0.255457
152 1 0.871196 0.24586 0.256936
153 1 0.99635 0.370973 0.251698
154 1 0.124204 0.378402 0.241706
155 1 0.244642 0.3715 0.257136
156 1 0.371905 0.371534 0.255917
157 1 0.498695 0.372315 0.252255
158 1 0.623931 0.372442 0.249116
159 1 0.748849 0.377798 0.23875
160 1 0.876812 0.375208 0.246651
161 1 0.00560041 0.494149 0.246968
162 1 0.128418 0.493981 0.249897
163 1 0.246846 0.494122 0.255017
164 1 0.37582 0.48942 0.255966
165 1 0.504155 0.503314 0.243723
166 1 0.630509 0.4964 0.252195
167 1 0.74883 0.50617 0.243439
168 1 0.877935 0.497554 0.246592
169 1 -0.00117793 0.620985 0.249919
170 1 0.124686 0.622711 0.242959
171 1 0.250635 0.622595 0.248571
172 1 0.37334 0.624635 0.247955
173 1 0.499722 0.621335 0.251017
174 1 0.625248 0.623133 0.252593
175 1 0.760274 0.62653 0.239815
176 1 0.879052 0.624546 0.242818
177 1 0.992692 0.750562 0.257516
178 1 0.129994 0.744207 0.243236
179 1 0.255345 0.744828 0.242197
180 1 0.381666 0.747182 0.24711
181 1 0.502382 0.752203 0.246942
182 1 0.633409 0.746819 0.244068
183 1 0.75042 0.751195 0.252108
184 1 0.875313 0.741979 0.253604
185 1 0.999589 0.878351 0.246765
186 1 0.126955 0.868437 0.246216
187 1 0.255057 0.866059 0.245869
188 1 0.372949 0.873674 0.251856
189 1 0.499349 0.877265 0.249896
190 1 0.626567 0.877457 0.248726
191 1 0.757392 0.874628 0.247965
192 1 0.872737 0.876996 0.252482
193 1 0.00466893 0.000571037 0.378452
194 1 0.127078 0.995751 0.378755
195 1 0.250145 0.997517 0.369873
196 1 0.376877 -0.00426867 0.377769
197 1 0.502543 -0.00269219 0.376389
198 1 0.618362 0.00625661 0.374556
199 1 0.751651 0.00175692 0.368276
200 1 0.873982 0.0027789 0.379226
201 1 0.999037 0.125137 0.378729
202 1 0.127163 0.117583 0.380945
203 1 0.244375 0.121907 0.377707
204 1 0.368161 0.125561 0.376721
205 1 0.490025 0.123483 0.379231
206 1 0.616421 0.125191 0.377645
207 1 0.744989 0.125612 0.379785
208 1 0.876447 0.12254 0.380296
209 1 0.99858 0.242426 0.378699
210 1 0.125716 0.254244 0.375673
211 1 0.251239 0.253254 0.373034
212 1 0.373199 0.245193 0.38286
213 1 0.498364 0.247197 0.372202
214 1 0.623577 0.253287 0.372578
215 1 0.744717 0.250793 0.381835
216 1 0.874423 0.252213 0.37784
217 1 0.00347609 0.367839 0.372819
218 1 0.122404 0.370367 0.377443
219 1 0.244861 0.377067 0.378224
220 1 0.371565 0.37001 0.38081
221 1 0.502145 0.372459 0.371263
222 1 0.628 0.36724 0.381657
223 1 0.752281 0.374142 0.369643
224 1 0.874854 0.380903 0.369548
225 1 0.00972364 0.495897 0.370992
226 1 0.12743 0.496224 0.373806
227 1 0.247209 0.499554 0.380095
228 1 0.374505 0.50242 0.3717
229 1 0.500964 0.498173 0.374588
230 1 0.624204 0.499296 0.377814
231 1 0.75439 0.501322 0.369027
232 1 0.880887 0.501077 0.369945
233 1 0.998328 0.628263 0.378247
234 1 0.116244 0.628008 0.374112
235 1 0.242594 0.623485 0.380691
236 1 0.380653 0.616655 0.3773
237 1 0.504323 0.618169 0.373841
238 1 0.627688 0.625207 0.372801
239 1 0.760382 0.625109 0.363119
240 1 0.882267 0.625281 0.377318
241 1 1.00025 0.755206 0.375129
242 1 0.127239 0.749436 0.375569
243 1 0.252191 0.744168 0.377702
244 1 0.377458 0.749131 0.368883
245 1 0.508481 0.742607 0.368115
246 1 0.629208 0.74865 0.368567
247 1 0.750697 0.753956 0.369421
248 1 0.867485 0.75876 0.375813
249 1 -0.00198669 0.873021 0.383395
250 1 0.127893 0.864201 0.376596
251 1 0.252271 0.877264 0.369541
252 1 0.384283 0.864562 0.379515
253 1 0.498844 0.869571 0.379292
254 1 0.621775 0.880022 0.36928
255 1 0.747422 0.883921 0.372245
256 1 0.873488 0.880382 0.375395
257 1 0.00436357 1.00034 0.502385
258 1 0.126321 0.997119 0.507992
259 1 0.252121 1.0015 0.497151
260 1 0.372839 -0.00518297 0.508994
261 1 0.495129 0.997682 0.502538
262 1 0.63162 -7.18804e-06 0.499151
263 1 0.756507 0.991913 0.502621
264 1 0.875575 0.00722262 0.50314
265 1 0.997873 0.122584 0.505114
266 1 0.124027 0.123888 0.501792
267 1 0.242249 0.130535 0.50218
268 1 0.367659 0.122438 0.504836
269 1 0.496918 0.1222 0.506864
270 1 0.625974 0.126468 0.494534
271 1 0.749815 0.129287 0.501925
272 1 0.873772 0.128598 0.504936
273 1 0.99549 0.248618 0.500455
274 1 0.121001 0.254549 0.49661
275 1 0.247115 0.25036 0.502343
276 1 0.379496 0.24991 0.501892
277 1 0.502937 0.253943 0.498738
278 1 0.623584 0.243439 0.505026
279 1 0.747743 0.254742 0.500201
280 1 0.874819 0.252326 0.499932
281 1 -0.00501358 0.377099 0.504138
282 1 0.129044 0.374251 0.498759
283 1 0.246086 0.375395 0.496843
284 1 0.367568 0.385545 0.500871
285 1 0.497194 0.369984 0.502547
286 1 0.629011 0.3732 0.497277
287 1 0.751643 0.373511 0.501531
288 1 0.877517 0.378654 0.495827
289 1 0.998369 0.51097 0.493049
290 1 0.128902 0.498821 0.498014
291 1 0.245657 0.503942 0.503793
292 1 0.37174 0.496417 0.510871
293 1 0.509287 0.490929 0.50093
294 1 0.625755 0.497007 0.504171
295 1 0.755667 0.503921 0.492116
296 1 0.880272 0.503995 0.49619
297 1 0.00340422 0.62617 0.498838
298 1 0.127368 0.62075 0.49826
299 1 0.253935 0.619003 0.500202
300 1 0.385842 0.621161 0.498729
301 1 0.501924 0.624576 0.498125
302 1 0.633992 0.627353 0.496161
303 1 0.760228 0.628174 0.495612
304 1 0.870048 0.633553 0.499299
305 1 1.00003 0.748875 0.498887
306 1 0.127302 0.74849 0.496538
307 1 0.260341 0.745629 0.493003
308 1 0.378925 0.744446 0.50189
309 1 0.501959 0.746672 0.499779
310 1 0.626167 0.756819 0.494599
311 1 0.749596 0.755707 0.5003
312 1 0.877388 0.753116 0.49791
313 1 1.00189 0.882206 0.501723
314 1 0.129872 0.877983 0.493497
315 1 0.250307 0.874792 0.498534
316 1 0.381803 0.874394 0.499292
317 1 0.503743 0.871162 0.496881
318 1 0.620107 0.882826 0.49529
319 1 0.737706 0.879942 0.503237
320 1 0.884253 0.874522 0.496794
321 1 0.000784208 0.991884 0.630776
322 1 0.141328 0.000220031 0.621919
323 1 0.247591 -0.00127954 0.626481
324 1 0.372618 0.00163834 0.623634
325 1 0.493129 0.00833835 0.630589
326 1 0.625958 0.999363 0.626974
327 1 0.756962 -0.000406374 0.6212
328 1 0.879845 0.00422196 0.625053
329 1 0.00345942 0.121613 0.624852
330 1 0.117616 0.13553 0.625671
331 1 0.248407 0.127856 0.622891
332 1 0.369922 0.125762 0.627656
333 1 0.500352 0.119515 0.62967
334 1 0.619101 0.129487 0.628634
335 1 0.746288 0.130857 0.62543
336 1 0.879299 0.124049 0.628197
337 1 0.994402 0.250174 0.626399
338 1 0.121847 0.253816 0.620933
339 1 0.252265 0.253924 0.624685
340 1 0.37609 0.245523 0.620502
341 1 0.500402 0.247449 0.628632
342 1 0.62667 0.253006 0.620685
343 1 0.751889 0.245984 0.627756
344 1 0.873938 0.254803 0.617235
345 1 0.992694 0.380649 0.624296
346 1 0.127985 0.369716 0.632162
347 1 0.255038 0.375858 0.623548
348 1 0.375029 0.365143 0.63294
349 1 0.504548 0.369017 0.629624
350 1 0.630881 0.371968 0.627553
351 1 0.75599 0.377688 0.626311
352 1 0.873963 0.380132 0.622057
353 1 -0.0033005 0.503846 0.622429
354 1 0.124415 0.497522 0.629994
355 1 0.248545 0.4988 0.624964
356 1 0.378986 0.495873 0.625864
357 1 0.502703 0.499356 0.627194
358 1 0.628409 0.495169 0.622936
359 1 0.753573 0.500641 0.622277
360 1 0.875073 0.504702 0.625125
361 1 0.00937831 0.628392 0.621867
362 1 0.128806 0.632525 0.618584
363 1 0.255015 0.627328 0.614529
364 1 0.386241 0.615772 0.625071
365 1 0.505245 0.620452 0.624903
366 1 0.62549 0.627032 0.622253
367 1 0.74983 0.628242 0.622201
368 1 0.880242 0.630729 0.61921
369 1 0.00327868 0.751791 0.625448
370 1 0.128735 0.749351 0.626403
371 1 0.252755 0.752695 0.614747
372 1 0.376309 0.748235 0.623382
373 1 0.510306 0.746333 0.61837
374 1 0.629723 0.754567 0.617939
375 1 0.759974 0.756527 0.617747
376 1 0.881654 0.74876 0.626412
377 1 0.00344753 0.873862 0.622053
378 1 0.125976 0.875529 0.624426
379 1 0.252638 0.871622 0.625482
380 1 0.383742 0.86532 0.62666
381 1 0.503044 0.872021 0.626651
382 1 0.622536 0.878543 0.628565
383 1 0.75608 0.875762 0.624645
384 1 0.871748 0.877014 0.634678
385 1 0.00312802 0.00357008 0.742463
386 1 0.124011 0.00300729 0.744927
387 1 0.245792 -0.000213958 0.751686
388 1 0.371618 0.00153611 0.754239
389 1 0.500418 -0.00116996 0.752465
390 1 0.631345 0.0015176 0.751775
391 1 0.751329 0.00590243 0.746983
392 1 0.879438 0.998762 0.750726
393 1 0.992252 0.132577 0.752676
394 1 0.114757 0.121195 0.757711
395 1 0.242447 0.125465 0.749079
396 1 0.366452 0.122793 0.755116
397 1 0.500401 0.127573 0.752876
398 1 0.622161 0.127596 0.753987
399 1 0.751806 0.127315 0.754333
400 1 0.878831 0.121929 0.752341
401 1 0.996298 0.254643 0.753233
402 1 0.123846 0.252026 0.744514
403 1 0.248545 0.252977 0.744717
404 1 0.373633 0.246539 0.756747
405 1 0.499362 0.252704 0.749649
406 1 0.62543 0.249377 0.748221
407 1 0.74667 0.24925 0.752094
408 1 0.868558 0.254233 0.744646
409 1 0.990629 0.388669 0.744925
410 1 0.117759 0.376892 0.754403
411 1 0.247698 0.377378 0.752647
412 1 0.377474 0.370875 0.760317
413 1 0.500146 0.377338 0.751153
414 1 0.62349 0.377329 0.753625
415 1 0.744348 0.380217 0.747756
416 1 0.858916 0.379346 0.757383
417 1 -0.00258092 0.507756 0.745965
418 1 0.125088 0.503197 0.751127
419 1 0.249681 0.509917 0.739344
420 1 0.372805 0.50206 0.752706
421 1 0.503016 0.50007 0.74334
422 1 0.624944 0.500085 0.746445
423 1 0.746501 0.501054 0.750274
424 1 0.871022 0.505768 0.748161
425 1 0.00133178 0.629746 0.749154
426 1 0.130007 0.619868 0.751314
427 1 0.251187 0.629815 0.741857
428 1 0.373003 0.628155 0.749602
429 1 0.500927 0.625069 0.75266
430 1 0.628883 0.622879 0.746526
431 1 0.747965 0.628543 0.746134
432 1 0.871468 0.627202 0.747364
433 1 -0.00058342 0.74781 0.750672
434 1 0.131704 0.745174 0.745557
435 1 0.25847 0.743519 0.750015
436 1 0.379542 0.746425 0.75162
437 1 0.499269 0.754038 0.746326
438 1 0.629291 0.748172 0.747195
439 1 0.749947 0.757711 0.745998
440 1 0.877236 0.755458 0.743528
441 1 0.00493011 0.871859 0.752838
442 1 0.124995 0.879044 0.751139
443 1 0.246811 0.872949 0.759131
444 1 0.37164 0.878233 0.754579
445 1 0.498279 0.879818 0.748855
446 1 0.625267 0.871591 0.755214
447 1 0.745481 0.878482 0.755936
448 1 0.879518 0.876368 0.747115
449 1 -0.00318312 0.00469358 0.875512
450 1 0.120922 0.00501164 0.873508
451 1 0.24516 0.990656 0.884904
452 1 0.373152 0.99499 0.881786
453 1 0.505851 0.996155 0.871655
454 1 0.621542 0.00206813 0.875849
455 1 0.752187 -5.72286e-05 0.873915
456 1 0.877562 1.0014 0.872425
457 1 0.992315 0.126596 0.883391
458 1 0.121551 0.132223 0.874104
459 1 0.250318 0.120181 0.87629
460 1 0.375483 0.124329 0.875498
461 1 0.501323 0.118169 0.878911
462 1 0.621975 0.129062 0.879499
463 1 0.751146 0.127955 0.876805
464 1 0.868672 0.129341 0.88104
465 1 0.998019 0.253471 0.870339
466 1 0.124424 0.249573 0.872455
467 1 0.249578 0.241234 0.879298
468 1 0.37435 0.25292 0.87914
469 1 0.501151 0.248599 0.875181
470 1 0.617725 0.250229 0.876678
471 1 0.741942 0.246541 0.888369
472 1 0.868906 0.258178 0.869276
473 1 -0.000423238 0.382292 0.870283
474 1 0.129411 0.366874 0.877454
475 1 0.248203 0.374396 0.872947
476 1 0.375071 0.373233 0.880001
477 1 0.502701 0.368911 0.877977
478 1 0.619088 0.37775 0.877407
479 1 0.745954 0.373486 0.875343
480 1 0.87448 0.376562 0.871549
481 1 0.00430962 0.495223 0.874348
482 1 0.135337 0.493126 0.87123
483 1 0.251556 0.509956 0.873836
484 1 0.379118 0.499119 0.878174
485 1 0.501606 0.49716 0.870096
486 1 0.623637 0.498522 0.873148
487 1 0.748764 0.502169 0.874776
488 1 0.875526 0.504651 0.867011
489 1 0.00805727 0.616785 0.875618
490 1 0.129084 0.624018 0.873912
491 1 0.248798 0.629662 0.871801
492 1 0.377671 0.618276 0.880083
493 1 0.494959 0.630864 0.87518
494 1 0.631332 0.631256 0.866853
495 1 0.753324 0.623086 0.868312
496 1 0.879744 0.625893 0.869312
497 1 0.00977064 0.745493 0.87803
498 1 0.136317 0.75036 0.868747
499 1 0.253508 0.744336 0.876777
500 1 0.375043 0.74701 0.878752
501 1 0.498526 0.751521 0.878146
502 1 0.627069 0.748492 0.873067
503 1 0.752652 0.747066 0.869375
504 1 0.875924 0.743683 0.870871
505 1 -0.00124547 0.875405 0.880818
506 1 0.121428 0.872603 0.878926
507 1 0.253566 0.875911 0.870098
508 1 0.37846 0.870716 0.874827
509 1 0.503935 0.879107 0.872771
510 1 0.629082 0.868141 0.875588
511 1 0.759256 0.870426 0.869427
512 1 0.880505 0.875024 0.876161
ITEM: TIMESTEP
100000
ITEM: NUMBER OF ATOMS
512