FCC(001) cell with dimension 8 x 8 x 8

512  atoms
  1  atom types

     0.00000000     20.44952811 xlo xhi
     0.00000000     17.70981084 ylo yhi
     0.00000000     16.69696978 zlo zhi
    10.22476405     10.22476405      5.90327028 xy xz yz

Atoms

  1  1   0.00000000     0.0000000000     0.00000000
  2  1   2.88934588     0.0000000000     0.00000000
  3  1   5.77869177     0.0000000000     0.00000000
  4  1   8.66803764     0.0000000000     0.00000000
  5  1   11.55738353     0.0000000000     0.00000000
  6  1   14.44672941     0.0000000000     0.00000000
  7  1   17.33607528     0.0000000000     0.00000000
  8  1   20.22542117     0.0000000000     0.00000000
  9  1   1.44467294     2.5022469436     0.00000000
 10  1   4.33401882     2.5022469436     0.00000000
 11  1   7.22336470     2.5022469436     0.00000000
 12  1   10.11271059     2.5022469436     0.00000000
 13  1   13.00205646     2.5022469436     0.00000000
 14  1   15.89140235     2.5022469436     0.00000000
 15  1   18.78074823     2.5022469436     0.00000000
 16  1   21.67009411     2.5022469436     0.00000000
 17  1   2.88934588     5.0044938771     0.00000000
 18  1   5.77869177     5.0044938771     0.00000000
 19  1   8.66803764     5.0044938771     0.00000000
 20  1   11.55738353     5.0044938771     0.00000000
 21  1   14.44672941     5.0044938771     0.00000000
 22  1   17.33607528     5.0044938771     0.00000000
 23  1   20.22542117     5.0044938771     0.00000000
 24  1   23.11476705     5.0044938771     0.00000000
 25  1   4.33401882     7.5067408107     0.00000000
 26  1   7.22336470     7.5067408107     0.00000000
 27  1   10.11271059     7.5067408107     0.00000000
 28  1   13.00205646     7.5067408107     0.00000000
 29  1   15.89140235     7.5067408107     0.00000000
 30  1   18.78074823     7.5067408107     0.00000000
 31  1   21.67009411     7.5067408107     0.00000000
 32  1   24.55943999     7.5067408107     0.00000000
 33  1   5.77869177     10.0089877342     0.00000000
 34  1   8.66803764     10.0089877342     0.00000000
 35  1   11.55738353     10.0089877342     0.00000000
 36  1   14.44672941     10.0089877342     0.00000000
 37  1   17.33607528     10.0089877342     0.00000000
 38  1   20.22542117     10.0089877342     0.00000000
 39  1   23.11476705     10.0089877342     0.00000000
 40  1   26.00411294     10.0089877342     0.00000000
 41  1   7.22336470     12.5112346778     0.00000000
 42  1   10.11271059     12.5112346778     0.00000000
 43  1   13.00205646     12.5112346778     0.00000000
 44  1   15.89140235     12.5112346778     0.00000000
 45  1   18.78074823     12.5112346778     0.00000000
 46  1   21.67009411     12.5112346778     0.00000000
 47  1   24.55943999     12.5112346778     0.00000000
 48  1   27.44878587     12.5112346778     0.00000000
 49  1   8.66803764     15.0134816013     0.00000000
 50  1   11.55738353     15.0134816013     0.00000000
 51  1   14.44672941     15.0134816013     0.00000000
 52  1   17.33607528     15.0134816013     0.00000000
 53  1   20.22542117     15.0134816013     0.00000000
 54  1   23.11476705     15.0134816013     0.00000000
 55  1   26.00411294     15.0134816013     0.00000000
 56  1   28.89345882     15.0134816013     0.00000000
 57  1   10.11271059     17.5157285449     0.00000000
 58  1   13.00205646     17.5157285449     0.00000000
 59  1   15.89140235     17.5157285449     0.00000000
 60  1   18.78074823     17.5157285449     0.00000000
 61  1   21.67009411     17.5157285449     0.00000000
 62  1   24.55943999     17.5157285449     0.00000000
 63  1   27.44878587     17.5157285449     0.00000000
 64  1   30.33813176     17.5157285449     0.00000000
 65  1   1.44467294     0.8340823279     2.35914103
 66  1   4.33401882     0.8340823279     2.35914103
 67  1   7.22336470     0.8340823279     2.35914103
 68  1   10.11271059     0.8340823279     2.35914103
 69  1   13.00205646     0.8340823279     2.35914103
 70  1   15.89140235     0.8340823279     2.35914103
 71  1   18.78074823     0.8340823279     2.35914103
 72  1   21.67009411     0.8340823279     2.35914103
 73  1   2.88934588     3.3363292414     2.35914103
 74  1   5.77869177     3.3363292414     2.35914103
 75  1   8.66803764     3.3363292414     2.35914103
 76  1   11.55738353     3.3363292414     2.35914103
 77  1   14.44672941     3.3363292414     2.35914103
 78  1   17.33607528     3.3363292414     2.35914103
 79  1   20.22542117     3.3363292414     2.35914103
 80  1   23.11476705     3.3363292414     2.35914103
 81  1   4.33401882     5.8385761850     2.35914103
 82  1   7.22336470     5.8385761850     2.35914103
 83  1   10.11271059     5.8385761850     2.35914103
 84  1   13.00205646     5.8385761850     2.35914103
 85  1   15.89140235     5.8385761850     2.35914103
 86  1   18.78074823     5.8385761850     2.35914103
 87  1   21.67009411     5.8385761850     2.35914103
 88  1   24.55943999     5.8385761850     2.35914103
 89  1   5.77869177     8.3408231185     2.35914103
 90  1   8.66803764     8.3408231185     2.35914103
 91  1   11.55738353     8.3408231185     2.35914103
 92  1   14.44672941     8.3408231185     2.35914103
 93  1   17.33607528     8.3408231185     2.35914103
 94  1   20.22542117     8.3408231185     2.35914103
 95  1   23.11476705     8.3408231185     2.35914103
 96  1   26.00411294     8.3408231185     2.35914103
 97  1   7.22336470     10.8430700521     2.35914103
 98  1   10.11271059     10.8430700521     2.35914103
 99  1   13.00205646     10.8430700521     2.35914103
100  1   15.89140235     10.8430700521     2.35914103
101  1   18.78074823     10.8430700521     2.35914103
102  1   21.67009411     10.8430700521     2.35914103
103  1   24.55943999     10.8430700521     2.35914103
104  1   27.44878587     10.8430700521     2.35914103
105  1   8.66803764     13.3453169856     2.35914103
106  1   11.55738353     13.3453169856     2.35914103
107  1   14.44672941     13.3453169856     2.35914103
108  1   17.33607528     13.3453169856     2.35914103
109  1   20.22542117     13.3453169856     2.35914103
110  1   23.11476705     13.3453169856     2.35914103
111  1   26.00411294     13.3453169856     2.35914103
112  1   28.89345882     13.3453169856     2.35914103
113  1   10.11271059     15.8475639292     2.35914103
114  1   13.00205646     15.8475639292     2.35914103
115  1   15.89140235     15.8475639292     2.35914103
116  1   18.78074823     15.8475639292     2.35914103
117  1   21.67009411     15.8475639292     2.35914103
118  1   24.55943999     15.8475639292     2.35914103
119  1   27.44878587     15.8475639292     2.35914103
120  1   30.33813176     15.8475639292     2.35914103
121  1   11.55738353     18.3498108527     2.35914103
122  1   14.44672941     18.3498108527     2.35914103
123  1   17.33607528     18.3498108527     2.35914103
124  1   20.22542117     18.3498108527     2.35914103
125  1   23.11476705     18.3498108527     2.35914103
126  1   26.00411294     18.3498108527     2.35914103
127  1   28.89345882     18.3498108527     2.35914103
128  1   31.78280469     18.3498108527     2.35914103
129  1   2.88934588     1.6681646257     4.71828207
130  1   5.77869177     1.6681646257     4.71828207
131  1   8.66803764     1.6681646257     4.71828207
132  1   11.55738353     1.6681646257     4.71828207
133  1   14.44672941     1.6681646257     4.71828207
134  1   17.33607528     1.6681646257     4.71828207
135  1   20.22542117     1.6681646257     4.71828207
136  1   23.11476705     1.6681646257     4.71828207
137  1   4.33401882     4.1704115693     4.71828207
138  1   7.22336470     4.1704115693     4.71828207
139  1   10.11271059     4.1704115693     4.71828207
140  1   13.00205646     4.1704115693     4.71828207
141  1   15.89140235     4.1704115693     4.71828207
142  1   18.78074823     4.1704115693     4.71828207
143  1   21.67009411     4.1704115693     4.71828207
144  1   24.55943999     4.1704115693     4.71828207
145  1   5.77869177     6.6726584928     4.71828207
146  1   8.66803764     6.6726584928     4.71828207
147  1   11.55738353     6.6726584928     4.71828207
148  1   14.44672941     6.6726584928     4.71828207
149  1   17.33607528     6.6726584928     4.71828207
150  1   20.22542117     6.6726584928     4.71828207
151  1   23.11476705     6.6726584928     4.71828207
152  1   26.00411294     6.6726584928     4.71828207
153  1   7.22336470     9.1749054364     4.71828207
154  1   10.11271059     9.1749054364     4.71828207
155  1   13.00205646     9.1749054364     4.71828207
156  1   15.89140235     9.1749054364     4.71828207
157  1   18.78074823     9.1749054364     4.71828207
158  1   21.67009411     9.1749054364     4.71828207
159  1   24.55943999     9.1749054364     4.71828207
160  1   27.44878587     9.1749054364     4.71828207
161  1   8.66803764     11.6771523699     4.71828207
162  1   11.55738353     11.6771523699     4.71828207
163  1   14.44672941     11.6771523699     4.71828207
164  1   17.33607528     11.6771523699     4.71828207
165  1   20.22542117     11.6771523699     4.71828207
166  1   23.11476705     11.6771523699     4.71828207
167  1   26.00411294     11.6771523699     4.71828207
168  1   28.89345882     11.6771523699     4.71828207
169  1   10.11271059     14.1793993035     4.71828207
170  1   13.00205646     14.1793993035     4.71828207
171  1   15.89140235     14.1793993035     4.71828207
172  1   18.78074823     14.1793993035     4.71828207
173  1   21.67009411     14.1793993035     4.71828207
174  1   24.55943999     14.1793993035     4.71828207
175  1   27.44878587     14.1793993035     4.71828207
176  1   30.33813176     14.1793993035     4.71828207
177  1   11.55738353     16.6816462270     4.71828207
178  1   14.44672941     16.6816462270     4.71828207
179  1   17.33607528     16.6816462270     4.71828207
180  1   20.22542117     16.6816462270     4.71828207
181  1   23.11476705     16.6816462270     4.71828207
182  1   26.00411294     16.6816462270     4.71828207
183  1   28.89345882     16.6816462270     4.71828207
184  1   31.78280469     16.6816462270     4.71828207
185  1   13.00205646     19.1838931606     4.71828207
186  1   15.89140235     19.1838931606     4.71828207
187  1   18.78074823     19.1838931606     4.71828207
188  1   21.67009411     19.1838931606     4.71828207
189  1   24.55943999     19.1838931606     4.71828207
190  1   27.44878587     19.1838931606     4.71828207
191  1   30.33813176     19.1838931606     4.71828207
192  1   33.22747764     19.1838931606     4.71828207
193  1   4.33401882     2.5022469436     7.07742310
194  1   7.22336470     2.5022469436     7.07742310
195  1   10.11271059     2.5022469436     7.07742310
196  1   13.00205646     2.5022469436     7.07742310
197  1   15.89140235     2.5022469436     7.07742310
198  1   18.78074823     2.5022469436     7.07742310
199  1   21.67009411     2.5022469436     7.07742310
200  1   24.55943999     2.5022469436     7.07742310
201  1   5.77869177     5.0044938771     7.07742310
202  1   8.66803764     5.0044938771     7.07742310
203  1   11.55738353     5.0044938771     7.07742310
204  1   14.44672941     5.0044938771     7.07742310
205  1   17.33607528     5.0044938771     7.07742310
206  1   20.22542117     5.0044938771     7.07742310
207  1   23.11476705     5.0044938771     7.07742310
208  1   26.00411294     5.0044938771     7.07742310
209  1   7.22336470     7.5067408107     7.07742310
210  1   10.11271059     7.5067408107     7.07742310
211  1   13.00205646     7.5067408107     7.07742310
212  1   15.89140235     7.5067408107     7.07742310
213  1   18.78074823     7.5067408107     7.07742310
214  1   21.67009411     7.5067408107     7.07742310
215  1   24.55943999     7.5067408107     7.07742310
216  1   27.44878587     7.5067408107     7.07742310
217  1   8.66803764     10.0089877342     7.07742310
218  1   11.55738353     10.0089877342     7.07742310
219  1   14.44672941     10.0089877342     7.07742310
220  1   17.33607528     10.0089877342     7.07742310
221  1   20.22542117     10.0089877342     7.07742310
222  1   23.11476705     10.0089877342     7.07742310
223  1   26.00411294     10.0089877342     7.07742310
224  1   28.89345882     10.0089877342     7.07742310
225  1   10.11271059     12.5112346778     7.07742310
226  1   13.00205646     12.5112346778     7.07742310
227  1   15.89140235     12.5112346778     7.07742310
228  1   18.78074823     12.5112346778     7.07742310
229  1   21.67009411     12.5112346778     7.07742310
230  1   24.55943999     12.5112346778     7.07742310
231  1   27.44878587     12.5112346778     7.07742310
232  1   30.33813176     12.5112346778     7.07742310
233  1   11.55738353     15.0134816013     7.07742310
234  1   14.44672941     15.0134816013     7.07742310
235  1   17.33607528     15.0134816013     7.07742310
236  1   20.22542117     15.0134816013     7.07742310
237  1   23.11476705     15.0134816013     7.07742310
238  1   26.00411294     15.0134816013     7.07742310
239  1   28.89345882     15.0134816013     7.07742310
240  1   31.78280469     15.0134816013     7.07742310
241  1   13.00205646     17.5157285449     7.07742310
242  1   15.89140235     17.5157285449     7.07742310
243  1   18.78074823     17.5157285449     7.07742310
244  1   21.67009411     17.5157285449     7.07742310
245  1   24.55943999     17.5157285449     7.07742310
246  1   27.44878587     17.5157285449     7.07742310
247  1   30.33813176     17.5157285449     7.07742310
248  1   33.22747764     17.5157285449     7.07742310
249  1   14.44672941     20.0179754784     7.07742310
250  1   17.33607528     20.0179754784     7.07742310
251  1   20.22542117     20.0179754784     7.07742310
252  1   23.11476705     20.0179754784     7.07742310
253  1   26.00411294     20.0179754784     7.07742310
254  1   28.89345882     20.0179754784     7.07742310
255  1   31.78280469     20.0179754784     7.07742310
256  1   34.67215058     20.0179754784     7.07742310
257  1   5.77869177     3.3363292414     9.43656413
258  1   8.66803764     3.3363292414     9.43656413
259  1   11.55738353     3.3363292414     9.43656413
260  1   14.44672941     3.3363292414     9.43656413
261  1   17.33607528     3.3363292414     9.43656413
262  1   20.22542117     3.3363292414     9.43656413
263  1   23.11476705     3.3363292414     9.43656413
264  1   26.00411294     3.3363292414     9.43656413
265  1   7.22336470     5.8385761850     9.43656413
266  1   10.11271059     5.8385761850     9.43656413
267  1   13.00205646     5.8385761850     9.43656413
268  1   15.89140235     5.8385761850     9.43656413
269  1   18.78074823     5.8385761850     9.43656413
270  1   21.67009411     5.8385761850     9.43656413
271  1   24.55943999     5.8385761850     9.43656413
272  1   27.44878587     5.8385761850     9.43656413
273  1   8.66803764     8.3408231185     9.43656413
274  1   11.55738353     8.3408231185     9.43656413
275  1   14.44672941     8.3408231185     9.43656413
276  1   17.33607528     8.3408231185     9.43656413
277  1   20.22542117     8.3408231185     9.43656413
278  1   23.11476705     8.3408231185     9.43656413
279  1   26.00411294     8.3408231185     9.43656413
280  1   28.89345882     8.3408231185     9.43656413
281  1   10.11271059     10.8430700521     9.43656413
282  1   13.00205646     10.8430700521     9.43656413
283  1   15.89140235     10.8430700521     9.43656413
284  1   18.78074823     10.8430700521     9.43656413
285  1   21.67009411     10.8430700521     9.43656413
286  1   24.55943999     10.8430700521     9.43656413
287  1   27.44878587     10.8430700521     9.43656413
288  1   30.33813176     10.8430700521     9.43656413
289  1   11.55738353     13.3453169856     9.43656413
290  1   14.44672941     13.3453169856     9.43656413
291  1   17.33607528     13.3453169856     9.43656413
292  1   20.22542117     13.3453169856     9.43656413
293  1   23.11476705     13.3453169856     9.43656413
294  1   26.00411294     13.3453169856     9.43656413
295  1   28.89345882     13.3453169856     9.43656413
296  1   31.78280469     13.3453169856     9.43656413
297  1   13.00205646     15.8475639292     9.43656413
298  1   15.89140235     15.8475639292     9.43656413
299  1   18.78074823     15.8475639292     9.43656413
300  1   21.67009411     15.8475639292     9.43656413
301  1   24.55943999     15.8475639292     9.43656413
302  1   27.44878587     15.8475639292     9.43656413
303  1   30.33813176     15.8475639292     9.43656413
304  1   33.22747764     15.8475639292     9.43656413
305  1   14.44672941     18.3498108527     9.43656413
306  1   17.33607528     18.3498108527     9.43656413
307  1   20.22542117     18.3498108527     9.43656413
308  1   23.11476705     18.3498108527     9.43656413
309  1   26.00411294     18.3498108527     9.43656413
310  1   28.89345882     18.3498108527     9.43656413
311  1   31.78280469     18.3498108527     9.43656413
312  1   34.67215058     18.3498108527     9.43656413
313  1   15.89140235     20.8520577963     9.43656413
314  1   18.78074823     20.8520577963     9.43656413
315  1   21.67009411     20.8520577963     9.43656413
316  1   24.55943999     20.8520577963     9.43656413
317  1   27.44878587     20.8520577963     9.43656413
318  1   30.33813176     20.8520577963     9.43656413
319  1   33.22747764     20.8520577963     9.43656413
320  1   36.11682351     20.8520577963     9.43656413
321  1   7.22336470     4.1704115693     11.79570517
322  1   10.11271059     4.1704115693     11.79570517
323  1   13.00205646     4.1704115693     11.79570517
324  1   15.89140235     4.1704115693     11.79570517
325  1   18.78074823     4.1704115693     11.79570517
326  1   21.67009411     4.1704115693     11.79570517
327  1   24.55943999     4.1704115693     11.79570517
328  1   27.44878587     4.1704115693     11.79570517
329  1   8.66803764     6.6726584928     11.79570517
330  1   11.55738353     6.6726584928     11.79570517
331  1   14.44672941     6.6726584928     11.79570517
332  1   17.33607528     6.6726584928     11.79570517
333  1   20.22542117     6.6726584928     11.79570517
334  1   23.11476705     6.6726584928     11.79570517
335  1   26.00411294     6.6726584928     11.79570517
336  1   28.89345882     6.6726584928     11.79570517
337  1   10.11271059     9.1749054364     11.79570517
338  1   13.00205646     9.1749054364     11.79570517
339  1   15.89140235     9.1749054364     11.79570517
340  1   18.78074823     9.1749054364     11.79570517
341  1   21.67009411     9.1749054364     11.79570517
342  1   24.55943999     9.1749054364     11.79570517
343  1   27.44878587     9.1749054364     11.79570517
344  1   30.33813176     9.1749054364     11.79570517
345  1   11.55738353     11.6771523699     11.79570517
346  1   14.44672941     11.6771523699     11.79570517
347  1   17.33607528     11.6771523699     11.79570517
348  1   20.22542117     11.6771523699     11.79570517
349  1   23.11476705     11.6771523699     11.79570517
350  1   26.00411294     11.6771523699     11.79570517
351  1   28.89345882     11.6771523699     11.79570517
352  1   31.78280469     11.6771523699     11.79570517
353  1   13.00205646     14.1793993035     11.79570517
354  1   15.89140235     14.1793993035     11.79570517
355  1   18.78074823     14.1793993035     11.79570517
356  1   21.67009411     14.1793993035     11.79570517
357  1   24.55943999     14.1793993035     11.79570517
358  1   27.44878587     14.1793993035     11.79570517
359  1   30.33813176     14.1793993035     11.79570517
360  1   33.22747764     14.1793993035     11.79570517
361  1   14.44672941     16.6816462270     11.79570517
362  1   17.33607528     16.6816462270     11.79570517
363  1   20.22542117     16.6816462270     11.79570517
364  1   23.11476705     16.6816462270     11.79570517
365  1   26.00411294     16.6816462270     11.79570517
366  1   28.89345882     16.6816462270     11.79570517
367  1   31.78280469     16.6816462270     11.79570517
368  1   34.67215058     16.6816462270     11.79570517
369  1   15.89140235     19.1838931606     11.79570517
370  1   18.78074823     19.1838931606     11.79570517
371  1   21.67009411     19.1838931606     11.79570517
372  1   24.55943999     19.1838931606     11.79570517
373  1   27.44878587     19.1838931606     11.79570517
374  1   30.33813176     19.1838931606     11.79570517
375  1   33.22747764     19.1838931606     11.79570517
376  1   36.11682351     19.1838931606     11.79570517
377  1   17.33607528     21.6861400941     11.79570517
378  1   20.22542117     21.6861400941     11.79570517
379  1   23.11476705     21.6861400941     11.79570517
380  1   26.00411294     21.6861400941     11.79570517
381  1   28.89345882     21.6861400941     11.79570517
382  1   31.78280469     21.6861400941     11.79570517
383  1   34.67215058     21.6861400941     11.79570517
384  1   37.56149646     21.6861400941     11.79570517
385  1   8.66803764     5.0044938771     14.15484620
386  1   11.55738353     5.0044938771     14.15484620
387  1   14.44672941     5.0044938771     14.15484620
388  1   17.33607528     5.0044938771     14.15484620
389  1   20.22542117     5.0044938771     14.15484620
390  1   23.11476705     5.0044938771     14.15484620
391  1   26.00411294     5.0044938771     14.15484620
392  1   28.89345882     5.0044938771     14.15484620
393  1   10.11271059     7.5067408107     14.15484620
394  1   13.00205646     7.5067408107     14.15484620
395  1   15.89140235     7.5067408107     14.15484620
396  1   18.78074823     7.5067408107     14.15484620
397  1   21.67009411     7.5067408107     14.15484620
398  1   24.55943999     7.5067408107     14.15484620
399  1   27.44878587     7.5067408107     14.15484620
400  1   30.33813176     7.5067408107     14.15484620
401  1   11.55738353     10.0089877342     14.15484620
402  1   14.44672941     10.0089877342     14.15484620
403  1   17.33607528     10.0089877342     14.15484620
404  1   20.22542117     10.0089877342     14.15484620
405  1   23.11476705     10.0089877342     14.15484620
406  1   26.00411294     10.0089877342     14.15484620
407  1   28.89345882     10.0089877342     14.15484620
408  1   31.78280469     10.0089877342     14.15484620
409  1   13.00205646     12.5112346778     14.15484620
410  1   15.89140235     12.5112346778     14.15484620
411  1   18.78074823     12.5112346778     14.15484620
412  1   21.67009411     12.5112346778     14.15484620
413  1   24.55943999     12.5112346778     14.15484620
414  1   27.44878587     12.5112346778     14.15484620
415  1   30.33813176     12.5112346778     14.15484620
416  1   33.22747764     12.5112346778     14.15484620
417  1   14.44672941     15.0134816013     14.15484620
418  1   17.33607528     15.0134816013     14.15484620
419  1   20.22542117     15.0134816013     14.15484620
420  1   23.11476705     15.0134816013     14.15484620
421  1   26.00411294     15.0134816013     14.15484620
422  1   28.89345882     15.0134816013     14.15484620
423  1   31.78280469     15.0134816013     14.15484620
424  1   34.67215058     15.0134816013     14.15484620
425  1   15.89140235     17.5157285449     14.15484620
426  1   18.78074823     17.5157285449     14.15484620
427  1   21.67009411     17.5157285449     14.15484620
428  1   24.55943999     17.5157285449     14.15484620
429  1   27.44878587     17.5157285449     14.15484620
430  1   30.33813176     17.5157285449     14.15484620
431  1   33.22747764     17.5157285449     14.15484620
432  1   36.11682351     17.5157285449     14.15484620
433  1   17.33607528     20.0179754784     14.15484620
434  1   20.22542117     20.0179754784     14.15484620
435  1   23.11476705     20.0179754784     14.15484620
436  1   26.00411294     20.0179754784     14.15484620
437  1   28.89345882     20.0179754784     14.15484620
438  1   31.78280469     20.0179754784     14.15484620
439  1   34.67215058     20.0179754784     14.15484620
440  1   37.56149646     20.0179754784     14.15484620
441  1   18.78074823     22.5202224120     14.15484620
442  1   21.67009411     22.5202224120     14.15484620
443  1   24.55943999     22.5202224120     14.15484620
444  1   27.44878587     22.5202224120     14.15484620
445  1   30.33813176     22.5202224120     14.15484620
446  1   33.22747764     22.5202224120     14.15484620
447  1   36.11682351     22.5202224120     14.15484620
448  1   39.00616940     22.5202224120     14.15484620
449  1   10.11271059     5.8385761850     16.51398723
450  1   13.00205646     5.8385761850     16.51398723
451  1   15.89140235     5.8385761850     16.51398723
452  1   18.78074823     5.8385761850     16.51398723
453  1   21.67009411     5.8385761850     16.51398723
454  1   24.55943999     5.8385761850     16.51398723
455  1   27.44878587     5.8385761850     16.51398723
456  1   30.33813176     5.8385761850     16.51398723
457  1   11.55738353     8.3408231185     16.51398723
458  1   14.44672941     8.3408231185     16.51398723
459  1   17.33607528     8.3408231185     16.51398723
460  1   20.22542117     8.3408231185     16.51398723
461  1   23.11476705     8.3408231185     16.51398723
462  1   26.00411294     8.3408231185     16.51398723
463  1   28.89345882     8.3408231185     16.51398723
464  1   31.78280469     8.3408231185     16.51398723
465  1   13.00205646     10.8430700521     16.51398723
466  1   15.89140235     10.8430700521     16.51398723
467  1   18.78074823     10.8430700521     16.51398723
468  1   21.67009411     10.8430700521     16.51398723
469  1   24.55943999     10.8430700521     16.51398723
470  1   27.44878587     10.8430700521     16.51398723
471  1   30.33813176     10.8430700521     16.51398723
472  1   33.22747764     10.8430700521     16.51398723
473  1   14.44672941     13.3453169856     16.51398723
474  1   17.33607528     13.3453169856     16.51398723
475  1   20.22542117     13.3453169856     16.51398723
476  1   23.11476705     13.3453169856     16.51398723
477  1   26.00411294     13.3453169856     16.51398723
478  1   28.89345882     13.3453169856     16.51398723
479  1   31.78280469     13.3453169856     16.51398723
480  1   34.67215058     13.3453169856     16.51398723
481  1   15.89140235     15.8475639292     16.51398723
482  1   18.78074823     15.8475639292     16.51398723
483  1   21.67009411     15.8475639292     16.51398723
484  1   24.55943999     15.8475639292     16.51398723
485  1   27.44878587     15.8475639292     16.51398723
486  1   30.33813176     15.8475639292     16.51398723
487  1   33.22747764     15.8475639292     16.51398723
488  1   36.11682351     15.8475639292     16.51398723
489  1   17.33607528     18.3498108527     16.51398723
490  1   20.22542117     18.3498108527     16.51398723
491  1   23.11476705     18.3498108527     16.51398723
492  1   26.00411294     18.3498108527     16.51398723
493  1   28.89345882     18.3498108527     16.51398723
494  1   31.78280469     18.3498108527     16.51398723
495  1   34.67215058     18.3498108527     16.51398723
496  1   37.56149646     18.3498108527     16.51398723
497  1   18.78074823     20.8520577963     16.51398723
498  1   21.67009411     20.8520577963     16.51398723
499  1   24.55943999     20.8520577963     16.51398723
500  1   27.44878587     20.8520577963     16.51398723
501  1   30.33813176     20.8520577963     16.51398723
502  1   33.22747764     20.8520577963     16.51398723
503  1   36.11682351     20.8520577963     16.51398723
504  1   39.00616940     20.8520577963     16.51398723
505  1   20.22542117     23.3543047198     16.51398723
506  1   23.11476705     23.3543047198     16.51398723
507  1   26.00411294     23.3543047198     16.51398723
508  1   28.89345882     23.3543047198     16.51398723
509  1   31.78280469     23.3543047198     16.51398723
510  1   34.67215058     23.3543047198     16.51398723
511  1   37.56149646     23.3543047198     16.51398723
512  1   40.45084235     23.3543047198     16.51398723
