FCC(111) cell with dimension 16 x 16 x 16

4096  atoms
   1  atom types

     0.00000000     46.22820324 xlo xhi
     0.00000000     40.03479838 ylo yhi
     0.00000000     37.74516898 zlo zhi
    20.44952810     20.44952810      11.80654056 xy xz yz

Atoms

   1	1	     0.00000000     0.00000000     0.00000000
   2	1	     2.89206674     0.00000000     0.00000000
   3	1	     5.78413347     0.00000000     0.00000000
   4	1	     8.67620021     0.00000000     0.00000000
   5	1	    11.56826694     0.00000000     0.00000000
   6	1	    14.46033368     0.00000000     0.00000000
   7	1	    17.35240041     0.00000000     0.00000000
   8	1	    20.24446715     0.00000000     0.00000000
   9	1	    23.13653388     0.00000000     0.00000000
  10	1	    26.02860062     0.00000000     0.00000000
  11	1	    28.92066735     0.00000000     0.00000000
  12	1	    31.81273409     0.00000000     0.00000000
  13	1	    34.70480082     0.00000000     0.00000000
  14	1	    37.59686756     0.00000000     0.00000000
  15	1	    40.48893429     0.00000000     0.00000000
  16	1	    43.38100103     0.00000000     0.00000000
  17	1	     1.44603337     2.50460326     0.00000000
  18	1	     4.33810010     2.50460326     0.00000000
  19	1	     7.23016684     2.50460326     0.00000000
  20	1	    10.12223357     2.50460326     0.00000000
  21	1	    13.01430031     2.50460326     0.00000000
  22	1	    15.90636704     2.50460326     0.00000000
  23	1	    18.79843378     2.50460326     0.00000000
  24	1	    21.69050051     2.50460326     0.00000000
  25	1	    24.58256725     2.50460326     0.00000000
  26	1	    27.47463398     2.50460326     0.00000000
  27	1	    30.36670072     2.50460326     0.00000000
  28	1	    33.25876745     2.50460326     0.00000000
  29	1	    36.15083419     2.50460326     0.00000000
  30	1	    39.04290092     2.50460326     0.00000000
  31	1	    41.93496766     2.50460326     0.00000000
  32	1	    44.82703439     2.50460326     0.00000000
  33	1	     2.89206674     5.00920652     0.00000000
  34	1	     5.78413347     5.00920652     0.00000000
  35	1	     8.67620021     5.00920652     0.00000000
  36	1	    11.56826694     5.00920652     0.00000000
  37	1	    14.46033368     5.00920652     0.00000000
  38	1	    17.35240041     5.00920652     0.00000000
  39	1	    20.24446715     5.00920652     0.00000000
  40	1	    23.13653388     5.00920652     0.00000000
  41	1	    26.02860062     5.00920652     0.00000000
  42	1	    28.92066735     5.00920652     0.00000000
  43	1	    31.81273409     5.00920652     0.00000000
  44	1	    34.70480082     5.00920652     0.00000000
  45	1	    37.59686756     5.00920652     0.00000000
  46	1	    40.48893429     5.00920652     0.00000000
  47	1	    43.38100103     5.00920652     0.00000000
  48	1	    46.27306776     5.00920652     0.00000000
  49	1	     4.33810010     7.51380979     0.00000000
  50	1	     7.23016684     7.51380979     0.00000000
  51	1	    10.12223357     7.51380979     0.00000000
  52	1	    13.01430031     7.51380979     0.00000000
  53	1	    15.90636704     7.51380979     0.00000000
  54	1	    18.79843378     7.51380979     0.00000000
  55	1	    21.69050051     7.51380979     0.00000000
  56	1	    24.58256725     7.51380979     0.00000000
  57	1	    27.47463398     7.51380979     0.00000000
  58	1	    30.36670072     7.51380979     0.00000000
  59	1	    33.25876745     7.51380979     0.00000000
  60	1	    36.15083419     7.51380979     0.00000000
  61	1	    39.04290092     7.51380979     0.00000000
  62	1	    41.93496766     7.51380979     0.00000000
  63	1	    44.82703439     7.51380979     0.00000000
  64	1	    47.71910113     7.51380979     0.00000000
  65	1	     5.78413347    10.01841305     0.00000000
  66	1	     8.67620021    10.01841305     0.00000000
  67	1	    11.56826694    10.01841305     0.00000000
  68	1	    14.46033368    10.01841305     0.00000000
  69	1	    17.35240041    10.01841305     0.00000000
  70	1	    20.24446715    10.01841305     0.00000000
  71	1	    23.13653388    10.01841305     0.00000000
  72	1	    26.02860062    10.01841305     0.00000000
  73	1	    28.92066735    10.01841305     0.00000000
  74	1	    31.81273409    10.01841305     0.00000000
  75	1	    34.70480082    10.01841305     0.00000000
  76	1	    37.59686756    10.01841305     0.00000000
  77	1	    40.48893429    10.01841305     0.00000000
  78	1	    43.38100103    10.01841305     0.00000000
  79	1	    46.27306776    10.01841305     0.00000000
  80	1	    49.16513450    10.01841305     0.00000000
  81	1	     7.23016684    12.52301631     0.00000000
  82	1	    10.12223357    12.52301631     0.00000000
  83	1	    13.01430031    12.52301631     0.00000000
  84	1	    15.90636704    12.52301631     0.00000000
  85	1	    18.79843378    12.52301631     0.00000000
  86	1	    21.69050051    12.52301631     0.00000000
  87	1	    24.58256725    12.52301631     0.00000000
  88	1	    27.47463398    12.52301631     0.00000000
  89	1	    30.36670072    12.52301631     0.00000000
  90	1	    33.25876745    12.52301631     0.00000000
  91	1	    36.15083419    12.52301631     0.00000000
  92	1	    39.04290092    12.52301631     0.00000000
  93	1	    41.93496766    12.52301631     0.00000000
  94	1	    44.82703439    12.52301631     0.00000000
  95	1	    47.71910113    12.52301631     0.00000000
  96	1	    50.61116786    12.52301631     0.00000000
  97	1	     8.67620021    15.02761957     0.00000000
  98	1	    11.56826694    15.02761957     0.00000000
  99	1	    14.46033368    15.02761957     0.00000000
 100	1	    17.35240041    15.02761957     0.00000000
 101	1	    20.24446715    15.02761957     0.00000000
 102	1	    23.13653388    15.02761957     0.00000000
 103	1	    26.02860062    15.02761957     0.00000000
 104	1	    28.92066735    15.02761957     0.00000000
 105	1	    31.81273409    15.02761957     0.00000000
 106	1	    34.70480082    15.02761957     0.00000000
 107	1	    37.59686756    15.02761957     0.00000000
 108	1	    40.48893429    15.02761957     0.00000000
 109	1	    43.38100103    15.02761957     0.00000000
 110	1	    46.27306776    15.02761957     0.00000000
 111	1	    49.16513450    15.02761957     0.00000000
 112	1	    52.05720123    15.02761957     0.00000000
 113	1	    10.12223357    17.53222283     0.00000000
 114	1	    13.01430031    17.53222283     0.00000000
 115	1	    15.90636704    17.53222283     0.00000000
 116	1	    18.79843378    17.53222283     0.00000000
 117	1	    21.69050051    17.53222283     0.00000000
 118	1	    24.58256725    17.53222283     0.00000000
 119	1	    27.47463398    17.53222283     0.00000000
 120	1	    30.36670072    17.53222283     0.00000000
 121	1	    33.25876745    17.53222283     0.00000000
 122	1	    36.15083419    17.53222283     0.00000000
 123	1	    39.04290092    17.53222283     0.00000000
 124	1	    41.93496766    17.53222283     0.00000000
 125	1	    44.82703439    17.53222283     0.00000000
 126	1	    47.71910113    17.53222283     0.00000000
 127	1	    50.61116786    17.53222283     0.00000000
 128	1	    53.50323460    17.53222283     0.00000000
 129	1	    11.56826694    20.03682610     0.00000000
 130	1	    14.46033368    20.03682610     0.00000000
 131	1	    17.35240041    20.03682610     0.00000000
 132	1	    20.24446715    20.03682610     0.00000000
 133	1	    23.13653388    20.03682610     0.00000000
 134	1	    26.02860062    20.03682610     0.00000000
 135	1	    28.92066735    20.03682610     0.00000000
 136	1	    31.81273409    20.03682610     0.00000000
 137	1	    34.70480082    20.03682610     0.00000000
 138	1	    37.59686756    20.03682610     0.00000000
 139	1	    40.48893429    20.03682610     0.00000000
 140	1	    43.38100103    20.03682610     0.00000000
 141	1	    46.27306776    20.03682610     0.00000000
 142	1	    49.16513450    20.03682610     0.00000000
 143	1	    52.05720123    20.03682610     0.00000000
 144	1	    54.94926797    20.03682610     0.00000000
 145	1	    13.01430031    22.54142936     0.00000000
 146	1	    15.90636704    22.54142936     0.00000000
 147	1	    18.79843378    22.54142936     0.00000000
 148	1	    21.69050051    22.54142936     0.00000000
 149	1	    24.58256725    22.54142936     0.00000000
 150	1	    27.47463398    22.54142936     0.00000000
 151	1	    30.36670072    22.54142936     0.00000000
 152	1	    33.25876745    22.54142936     0.00000000
 153	1	    36.15083419    22.54142936     0.00000000
 154	1	    39.04290092    22.54142936     0.00000000
 155	1	    41.93496766    22.54142936     0.00000000
 156	1	    44.82703439    22.54142936     0.00000000
 157	1	    47.71910113    22.54142936     0.00000000
 158	1	    50.61116786    22.54142936     0.00000000
 159	1	    53.50323460    22.54142936     0.00000000
 160	1	    56.39530133    22.54142936     0.00000000
 161	1	    14.46033368    25.04603262     0.00000000
 162	1	    17.35240041    25.04603262     0.00000000
 163	1	    20.24446715    25.04603262     0.00000000
 164	1	    23.13653388    25.04603262     0.00000000
 165	1	    26.02860062    25.04603262     0.00000000
 166	1	    28.92066735    25.04603262     0.00000000
 167	1	    31.81273409    25.04603262     0.00000000
 168	1	    34.70480082    25.04603262     0.00000000
 169	1	    37.59686756    25.04603262     0.00000000
 170	1	    40.48893429    25.04603262     0.00000000
 171	1	    43.38100103    25.04603262     0.00000000
 172	1	    46.27306776    25.04603262     0.00000000
 173	1	    49.16513450    25.04603262     0.00000000
 174	1	    52.05720123    25.04603262     0.00000000
 175	1	    54.94926797    25.04603262     0.00000000
 176	1	    57.84133470    25.04603262     0.00000000
 177	1	    15.90636704    27.55063588     0.00000000
 178	1	    18.79843378    27.55063588     0.00000000
 179	1	    21.69050051    27.55063588     0.00000000
 180	1	    24.58256725    27.55063588     0.00000000
 181	1	    27.47463398    27.55063588     0.00000000
 182	1	    30.36670072    27.55063588     0.00000000
 183	1	    33.25876745    27.55063588     0.00000000
 184	1	    36.15083419    27.55063588     0.00000000
 185	1	    39.04290092    27.55063588     0.00000000
 186	1	    41.93496766    27.55063588     0.00000000
 187	1	    44.82703439    27.55063588     0.00000000
 188	1	    47.71910113    27.55063588     0.00000000
 189	1	    50.61116786    27.55063588     0.00000000
 190	1	    53.50323460    27.55063588     0.00000000
 191	1	    56.39530133    27.55063588     0.00000000
 192	1	    59.28736807    27.55063588     0.00000000
 193	1	    17.35240041    30.05523914     0.00000000
 194	1	    20.24446715    30.05523914     0.00000000
 195	1	    23.13653388    30.05523914     0.00000000
 196	1	    26.02860062    30.05523914     0.00000000
 197	1	    28.92066735    30.05523914     0.00000000
 198	1	    31.81273409    30.05523914     0.00000000
 199	1	    34.70480082    30.05523914     0.00000000
 200	1	    37.59686756    30.05523914     0.00000000
 201	1	    40.48893429    30.05523914     0.00000000
 202	1	    43.38100103    30.05523914     0.00000000
 203	1	    46.27306776    30.05523914     0.00000000
 204	1	    49.16513450    30.05523914     0.00000000
 205	1	    52.05720123    30.05523914     0.00000000
 206	1	    54.94926797    30.05523914     0.00000000
 207	1	    57.84133470    30.05523914     0.00000000
 208	1	    60.73340144    30.05523914     0.00000000
 209	1	    18.79843378    32.55984241     0.00000000
 210	1	    21.69050051    32.55984241     0.00000000
 211	1	    24.58256725    32.55984241     0.00000000
 212	1	    27.47463398    32.55984241     0.00000000
 213	1	    30.36670072    32.55984241     0.00000000
 214	1	    33.25876745    32.55984241     0.00000000
 215	1	    36.15083419    32.55984241     0.00000000
 216	1	    39.04290092    32.55984241     0.00000000
 217	1	    41.93496766    32.55984241     0.00000000
 218	1	    44.82703439    32.55984241     0.00000000
 219	1	    47.71910113    32.55984241     0.00000000
 220	1	    50.61116786    32.55984241     0.00000000
 221	1	    53.50323460    32.55984241     0.00000000
 222	1	    56.39530133    32.55984241     0.00000000
 223	1	    59.28736807    32.55984241     0.00000000
 224	1	    62.17943480    32.55984241     0.00000000
 225	1	    20.24446715    35.06444567     0.00000000
 226	1	    23.13653388    35.06444567     0.00000000
 227	1	    26.02860062    35.06444567     0.00000000
 228	1	    28.92066735    35.06444567     0.00000000
 229	1	    31.81273409    35.06444567     0.00000000
 230	1	    34.70480082    35.06444567     0.00000000
 231	1	    37.59686756    35.06444567     0.00000000
 232	1	    40.48893429    35.06444567     0.00000000
 233	1	    43.38100103    35.06444567     0.00000000
 234	1	    46.27306776    35.06444567     0.00000000
 235	1	    49.16513450    35.06444567     0.00000000
 236	1	    52.05720123    35.06444567     0.00000000
 237	1	    54.94926797    35.06444567     0.00000000
 238	1	    57.84133470    35.06444567     0.00000000
 239	1	    60.73340144    35.06444567     0.00000000
 240	1	    63.62546817    35.06444567     0.00000000
 241	1	    21.69050051    37.56904893     0.00000000
 242	1	    24.58256725    37.56904893     0.00000000
 243	1	    27.47463398    37.56904893     0.00000000
 244	1	    30.36670072    37.56904893     0.00000000
 245	1	    33.25876745    37.56904893     0.00000000
 246	1	    36.15083419    37.56904893     0.00000000
 247	1	    39.04290092    37.56904893     0.00000000
 248	1	    41.93496766    37.56904893     0.00000000
 249	1	    44.82703439    37.56904893     0.00000000
 250	1	    47.71910113    37.56904893     0.00000000
 251	1	    50.61116786    37.56904893     0.00000000
 252	1	    53.50323460    37.56904893     0.00000000
 253	1	    56.39530133    37.56904893     0.00000000
 254	1	    59.28736807    37.56904893     0.00000000
 255	1	    62.17943480    37.56904893     0.00000000
 256	1	    65.07150154    37.56904893     0.00000000
 257	1	     1.44603337     0.83486775     2.36136260
 258	1	     4.33810010     0.83486775     2.36136260
 259	1	     7.23016684     0.83486775     2.36136260
 260	1	    10.12223357     0.83486775     2.36136260
 261	1	    13.01430031     0.83486775     2.36136260
 262	1	    15.90636704     0.83486775     2.36136260
 263	1	    18.79843378     0.83486775     2.36136260
 264	1	    21.69050051     0.83486775     2.36136260
 265	1	    24.58256725     0.83486775     2.36136260
 266	1	    27.47463398     0.83486775     2.36136260
 267	1	    30.36670072     0.83486775     2.36136260
 268	1	    33.25876745     0.83486775     2.36136260
 269	1	    36.15083419     0.83486775     2.36136260
 270	1	    39.04290092     0.83486775     2.36136260
 271	1	    41.93496766     0.83486775     2.36136260
 272	1	    44.82703439     0.83486775     2.36136260
 273	1	     2.89206674     3.33947102     2.36136260
 274	1	     5.78413347     3.33947102     2.36136260
 275	1	     8.67620021     3.33947102     2.36136260
 276	1	    11.56826694     3.33947102     2.36136260
 277	1	    14.46033368     3.33947102     2.36136260
 278	1	    17.35240041     3.33947102     2.36136260
 279	1	    20.24446715     3.33947102     2.36136260
 280	1	    23.13653388     3.33947102     2.36136260
 281	1	    26.02860062     3.33947102     2.36136260
 282	1	    28.92066735     3.33947102     2.36136260
 283	1	    31.81273409     3.33947102     2.36136260
 284	1	    34.70480082     3.33947102     2.36136260
 285	1	    37.59686756     3.33947102     2.36136260
 286	1	    40.48893429     3.33947102     2.36136260
 287	1	    43.38100103     3.33947102     2.36136260
 288	1	    46.27306776     3.33947102     2.36136260
 289	1	     4.33810010     5.84407428     2.36136260
 290	1	     7.23016684     5.84407428     2.36136260
 291	1	    10.12223357     5.84407428     2.36136260
 292	1	    13.01430031     5.84407428     2.36136260
 293	1	    15.90636704     5.84407428     2.36136260
 294	1	    18.79843378     5.84407428     2.36136260
 295	1	    21.69050051     5.84407428     2.36136260
 296	1	    24.58256725     5.84407428     2.36136260
 297	1	    27.47463398     5.84407428     2.36136260
 298	1	    30.36670072     5.84407428     2.36136260
 299	1	    33.25876745     5.84407428     2.36136260
 300	1	    36.15083419     5.84407428     2.36136260
 301	1	    39.04290092     5.84407428     2.36136260
 302	1	    41.93496766     5.84407428     2.36136260
 303	1	    44.82703439     5.84407428     2.36136260
 304	1	    47.71910113     5.84407428     2.36136260
 305	1	     5.78413347     8.34867754     2.36136260
 306	1	     8.67620021     8.34867754     2.36136260
 307	1	    11.56826694     8.34867754     2.36136260
 308	1	    14.46033368     8.34867754     2.36136260
 309	1	    17.35240041     8.34867754     2.36136260
 310	1	    20.24446715     8.34867754     2.36136260
 311	1	    23.13653388     8.34867754     2.36136260
 312	1	    26.02860062     8.34867754     2.36136260
 313	1	    28.92066735     8.34867754     2.36136260
 314	1	    31.81273409     8.34867754     2.36136260
 315	1	    34.70480082     8.34867754     2.36136260
 316	1	    37.59686756     8.34867754     2.36136260
 317	1	    40.48893429     8.34867754     2.36136260
 318	1	    43.38100103     8.34867754     2.36136260
 319	1	    46.27306776     8.34867754     2.36136260
 320	1	    49.16513450     8.34867754     2.36136260
 321	1	     7.23016684    10.85328080     2.36136260
 322	1	    10.12223357    10.85328080     2.36136260
 323	1	    13.01430031    10.85328080     2.36136260
 324	1	    15.90636704    10.85328080     2.36136260
 325	1	    18.79843378    10.85328080     2.36136260
 326	1	    21.69050051    10.85328080     2.36136260
 327	1	    24.58256725    10.85328080     2.36136260
 328	1	    27.47463398    10.85328080     2.36136260
 329	1	    30.36670072    10.85328080     2.36136260
 330	1	    33.25876745    10.85328080     2.36136260
 331	1	    36.15083419    10.85328080     2.36136260
 332	1	    39.04290092    10.85328080     2.36136260
 333	1	    41.93496766    10.85328080     2.36136260
 334	1	    44.82703439    10.85328080     2.36136260
 335	1	    47.71910113    10.85328080     2.36136260
 336	1	    50.61116786    10.85328080     2.36136260
 337	1	     8.67620021    13.35788406     2.36136260
 338	1	    11.56826694    13.35788406     2.36136260
 339	1	    14.46033368    13.35788406     2.36136260
 340	1	    17.35240041    13.35788406     2.36136260
 341	1	    20.24446715    13.35788406     2.36136260
 342	1	    23.13653388    13.35788406     2.36136260
 343	1	    26.02860062    13.35788406     2.36136260
 344	1	    28.92066735    13.35788406     2.36136260
 345	1	    31.81273409    13.35788406     2.36136260
 346	1	    34.70480082    13.35788406     2.36136260
 347	1	    37.59686756    13.35788406     2.36136260
 348	1	    40.48893429    13.35788406     2.36136260
 349	1	    43.38100103    13.35788406     2.36136260
 350	1	    46.27306776    13.35788406     2.36136260
 351	1	    49.16513450    13.35788406     2.36136260
 352	1	    52.05720123    13.35788406     2.36136260
 353	1	    10.12223357    15.86248733     2.36136260
 354	1	    13.01430031    15.86248733     2.36136260
 355	1	    15.90636704    15.86248733     2.36136260
 356	1	    18.79843378    15.86248733     2.36136260
 357	1	    21.69050051    15.86248733     2.36136260
 358	1	    24.58256725    15.86248733     2.36136260
 359	1	    27.47463398    15.86248733     2.36136260
 360	1	    30.36670072    15.86248733     2.36136260
 361	1	    33.25876745    15.86248733     2.36136260
 362	1	    36.15083419    15.86248733     2.36136260
 363	1	    39.04290092    15.86248733     2.36136260
 364	1	    41.93496766    15.86248733     2.36136260
 365	1	    44.82703439    15.86248733     2.36136260
 366	1	    47.71910113    15.86248733     2.36136260
 367	1	    50.61116786    15.86248733     2.36136260
 368	1	    53.50323460    15.86248733     2.36136260
 369	1	    11.56826694    18.36709059     2.36136260
 370	1	    14.46033368    18.36709059     2.36136260
 371	1	    17.35240041    18.36709059     2.36136260
 372	1	    20.24446715    18.36709059     2.36136260
 373	1	    23.13653388    18.36709059     2.36136260
 374	1	    26.02860062    18.36709059     2.36136260
 375	1	    28.92066735    18.36709059     2.36136260
 376	1	    31.81273409    18.36709059     2.36136260
 377	1	    34.70480082    18.36709059     2.36136260
 378	1	    37.59686756    18.36709059     2.36136260
 379	1	    40.48893429    18.36709059     2.36136260
 380	1	    43.38100103    18.36709059     2.36136260
 381	1	    46.27306776    18.36709059     2.36136260
 382	1	    49.16513450    18.36709059     2.36136260
 383	1	    52.05720123    18.36709059     2.36136260
 384	1	    54.94926797    18.36709059     2.36136260
 385	1	    13.01430031    20.87169385     2.36136260
 386	1	    15.90636704    20.87169385     2.36136260
 387	1	    18.79843378    20.87169385     2.36136260
 388	1	    21.69050051    20.87169385     2.36136260
 389	1	    24.58256725    20.87169385     2.36136260
 390	1	    27.47463398    20.87169385     2.36136260
 391	1	    30.36670072    20.87169385     2.36136260
 392	1	    33.25876745    20.87169385     2.36136260
 393	1	    36.15083419    20.87169385     2.36136260
 394	1	    39.04290092    20.87169385     2.36136260
 395	1	    41.93496766    20.87169385     2.36136260
 396	1	    44.82703439    20.87169385     2.36136260
 397	1	    47.71910113    20.87169385     2.36136260
 398	1	    50.61116786    20.87169385     2.36136260
 399	1	    53.50323460    20.87169385     2.36136260
 400	1	    56.39530133    20.87169385     2.36136260
 401	1	    14.46033368    23.37629711     2.36136260
 402	1	    17.35240041    23.37629711     2.36136260
 403	1	    20.24446715    23.37629711     2.36136260
 404	1	    23.13653388    23.37629711     2.36136260
 405	1	    26.02860062    23.37629711     2.36136260
 406	1	    28.92066735    23.37629711     2.36136260
 407	1	    31.81273409    23.37629711     2.36136260
 408	1	    34.70480082    23.37629711     2.36136260
 409	1	    37.59686756    23.37629711     2.36136260
 410	1	    40.48893429    23.37629711     2.36136260
 411	1	    43.38100103    23.37629711     2.36136260
 412	1	    46.27306776    23.37629711     2.36136260
 413	1	    49.16513450    23.37629711     2.36136260
 414	1	    52.05720123    23.37629711     2.36136260
 415	1	    54.94926797    23.37629711     2.36136260
 416	1	    57.84133470    23.37629711     2.36136260
 417	1	    15.90636704    25.88090037     2.36136260
 418	1	    18.79843378    25.88090037     2.36136260
 419	1	    21.69050051    25.88090037     2.36136260
 420	1	    24.58256725    25.88090037     2.36136260
 421	1	    27.47463398    25.88090037     2.36136260
 422	1	    30.36670072    25.88090037     2.36136260
 423	1	    33.25876745    25.88090037     2.36136260
 424	1	    36.15083419    25.88090037     2.36136260
 425	1	    39.04290092    25.88090037     2.36136260
 426	1	    41.93496766    25.88090037     2.36136260
 427	1	    44.82703439    25.88090037     2.36136260
 428	1	    47.71910113    25.88090037     2.36136260
 429	1	    50.61116786    25.88090037     2.36136260
 430	1	    53.50323460    25.88090037     2.36136260
 431	1	    56.39530133    25.88090037     2.36136260
 432	1	    59.28736807    25.88090037     2.36136260
 433	1	    17.35240041    28.38550364     2.36136260
 434	1	    20.24446715    28.38550364     2.36136260
 435	1	    23.13653388    28.38550364     2.36136260
 436	1	    26.02860062    28.38550364     2.36136260
 437	1	    28.92066735    28.38550364     2.36136260
 438	1	    31.81273409    28.38550364     2.36136260
 439	1	    34.70480082    28.38550364     2.36136260
 440	1	    37.59686756    28.38550364     2.36136260
 441	1	    40.48893429    28.38550364     2.36136260
 442	1	    43.38100103    28.38550364     2.36136260
 443	1	    46.27306776    28.38550364     2.36136260
 444	1	    49.16513450    28.38550364     2.36136260
 445	1	    52.05720123    28.38550364     2.36136260
 446	1	    54.94926797    28.38550364     2.36136260
 447	1	    57.84133470    28.38550364     2.36136260
 448	1	    60.73340144    28.38550364     2.36136260
 449	1	    18.79843378    30.89010690     2.36136260
 450	1	    21.69050051    30.89010690     2.36136260
 451	1	    24.58256725    30.89010690     2.36136260
 452	1	    27.47463398    30.89010690     2.36136260
 453	1	    30.36670072    30.89010690     2.36136260
 454	1	    33.25876745    30.89010690     2.36136260
 455	1	    36.15083419    30.89010690     2.36136260
 456	1	    39.04290092    30.89010690     2.36136260
 457	1	    41.93496766    30.89010690     2.36136260
 458	1	    44.82703439    30.89010690     2.36136260
 459	1	    47.71910113    30.89010690     2.36136260
 460	1	    50.61116786    30.89010690     2.36136260
 461	1	    53.50323460    30.89010690     2.36136260
 462	1	    56.39530133    30.89010690     2.36136260
 463	1	    59.28736807    30.89010690     2.36136260
 464	1	    62.17943480    30.89010690     2.36136260
 465	1	    20.24446715    33.39471016     2.36136260
 466	1	    23.13653388    33.39471016     2.36136260
 467	1	    26.02860062    33.39471016     2.36136260
 468	1	    28.92066735    33.39471016     2.36136260
 469	1	    31.81273409    33.39471016     2.36136260
 470	1	    34.70480082    33.39471016     2.36136260
 471	1	    37.59686756    33.39471016     2.36136260
 472	1	    40.48893429    33.39471016     2.36136260
 473	1	    43.38100103    33.39471016     2.36136260
 474	1	    46.27306776    33.39471016     2.36136260
 475	1	    49.16513450    33.39471016     2.36136260
 476	1	    52.05720123    33.39471016     2.36136260
 477	1	    54.94926797    33.39471016     2.36136260
 478	1	    57.84133470    33.39471016     2.36136260
 479	1	    60.73340144    33.39471016     2.36136260
 480	1	    63.62546817    33.39471016     2.36136260
 481	1	    21.69050051    35.89931342     2.36136260
 482	1	    24.58256725    35.89931342     2.36136260
 483	1	    27.47463398    35.89931342     2.36136260
 484	1	    30.36670072    35.89931342     2.36136260
 485	1	    33.25876745    35.89931342     2.36136260
 486	1	    36.15083419    35.89931342     2.36136260
 487	1	    39.04290092    35.89931342     2.36136260
 488	1	    41.93496766    35.89931342     2.36136260
 489	1	    44.82703439    35.89931342     2.36136260
 490	1	    47.71910113    35.89931342     2.36136260
 491	1	    50.61116786    35.89931342     2.36136260
 492	1	    53.50323460    35.89931342     2.36136260
 493	1	    56.39530133    35.89931342     2.36136260
 494	1	    59.28736807    35.89931342     2.36136260
 495	1	    62.17943480    35.89931342     2.36136260
 496	1	    65.07150154    35.89931342     2.36136260
 497	1	    23.13653388    38.40391668     2.36136260
 498	1	    26.02860062    38.40391668     2.36136260
 499	1	    28.92066735    38.40391668     2.36136260
 500	1	    31.81273409    38.40391668     2.36136260
 501	1	    34.70480082    38.40391668     2.36136260
 502	1	    37.59686756    38.40391668     2.36136260
 503	1	    40.48893429    38.40391668     2.36136260
 504	1	    43.38100103    38.40391668     2.36136260
 505	1	    46.27306776    38.40391668     2.36136260
 506	1	    49.16513450    38.40391668     2.36136260
 507	1	    52.05720123    38.40391668     2.36136260
 508	1	    54.94926797    38.40391668     2.36136260
 509	1	    57.84133470    38.40391668     2.36136260
 510	1	    60.73340144    38.40391668     2.36136260
 511	1	    63.62546817    38.40391668     2.36136260
 512	1	    66.51753491    38.40391668     2.36136260
 513	1	     2.89206674     1.66973551     4.72272520
 514	1	     5.78413347     1.66973551     4.72272520
 515	1	     8.67620021     1.66973551     4.72272520
 516	1	    11.56826694     1.66973551     4.72272520
 517	1	    14.46033368     1.66973551     4.72272520
 518	1	    17.35240041     1.66973551     4.72272520
 519	1	    20.24446715     1.66973551     4.72272520
 520	1	    23.13653388     1.66973551     4.72272520
 521	1	    26.02860062     1.66973551     4.72272520
 522	1	    28.92066735     1.66973551     4.72272520
 523	1	    31.81273409     1.66973551     4.72272520
 524	1	    34.70480082     1.66973551     4.72272520
 525	1	    37.59686756     1.66973551     4.72272520
 526	1	    40.48893429     1.66973551     4.72272520
 527	1	    43.38100103     1.66973551     4.72272520
 528	1	    46.27306776     1.66973551     4.72272520
 529	1	     4.33810010     4.17433877     4.72272520
 530	1	     7.23016684     4.17433877     4.72272520
 531	1	    10.12223357     4.17433877     4.72272520
 532	1	    13.01430031     4.17433877     4.72272520
 533	1	    15.90636704     4.17433877     4.72272520
 534	1	    18.79843378     4.17433877     4.72272520
 535	1	    21.69050051     4.17433877     4.72272520
 536	1	    24.58256725     4.17433877     4.72272520
 537	1	    27.47463398     4.17433877     4.72272520
 538	1	    30.36670072     4.17433877     4.72272520
 539	1	    33.25876745     4.17433877     4.72272520
 540	1	    36.15083419     4.17433877     4.72272520
 541	1	    39.04290092     4.17433877     4.72272520
 542	1	    41.93496766     4.17433877     4.72272520
 543	1	    44.82703439     4.17433877     4.72272520
 544	1	    47.71910113     4.17433877     4.72272520
 545	1	     5.78413347     6.67894203     4.72272520
 546	1	     8.67620021     6.67894203     4.72272520
 547	1	    11.56826694     6.67894203     4.72272520
 548	1	    14.46033368     6.67894203     4.72272520
 549	1	    17.35240041     6.67894203     4.72272520
 550	1	    20.24446715     6.67894203     4.72272520