ITEM: TIMESTEP
0
ITEM: NUMBER OF ATOMS
512
ITEM: BOX BOUNDS xy xz yz pp pp pp
0.0000000000000000e+00 4.4394966010000005e+01 1.1098741499999999e+01
0.0000000000000000e+00 2.5631445580000001e+01 1.1098741499999999e+01
0.0000000000000000e+00 1.8124168980000000e+01 6.4078613899999999e+00
ITEM: ATOMS id type xs ys zs
1 1 0 0 0
2 1 0.125 0 0
3 1 0.25 0 0
4 1 0.375 0 0
5 1 0.5 0 0
6 1 0.625 0 0
7 1 0.75 0 0
8 1 0.875 0 0
9 1 1 0.125 0
10 1 0.125 0.125 0
11 1 0.25 0.125 0
12 1 0.375 0.125 0
13 1 0.5 0.125 0
14 1 0.625 0.125 0
15 1 0.75 0.125 0
16 1 0.875 0.125 0
17 1 1 0.25 0
18 1 0.125 0.25 0
19 1 0.25 0.25 0
20 1 0.375 0.25 0
21 1 0.5 0.25 0
22 1 0.625 0.25 0
23 1 0.75 0.25 0
24 1 0.875 0.25 0
25 1 9.20843e-11 0.375 0
26 1 0.125 0.375 0
27 1 0.25 0.375 0
28 1 0.375 0.375 0
29 1 0.5 0.375 0
30 1 0.625 0.375 0
31 1 0.75 0.375 0
32 1 0.875 0.375 0
33 1 2.11212e-10 0.5 0
34 1 0.125 0.5 0
35 1 0.25 0.5 0
36 1 0.375 0.5 0
37 1 0.5 0.5 0
38 1 0.625 0.5 0
39 1 0.75 0.5 0
40 1 0.875 0.5 0
41 1 1 0.625 0
42 1 0.125 0.625 0
43 1 0.25 0.625 0
44 1 0.375 0.625 0
45 1 0.5 0.625 0
46 1 0.625 0.625 0
47 1 0.75 0.625 0
48 1 0.875 0.625 0
49 1 1 0.75 0
50 1 0.125 0.75 0
51 1 0.25 0.75 0
52 1 0.375 0.75 0
53 1 0.5 0.75 0
54 1 0.625 0.75 0
55 1 0.75 0.75 0
56 1 0.875 0.75 0
57 1 1 0.875 0
58 1 0.125 0.875 0
59 1 0.25 0.875 0
60 1 0.375 0.875 0
61 1 0.5 0.875 0
62 1 0.625 0.875 0
63 1 0.75 0.875 0
64 1 0.875 0.875 0
65 1 1 7.82054e-10 0.125
66 1 0.125 7.82054e-10 0.125
67 1 0.25 7.82054e-10 0.125
68 1 0.375 7.82054e-10 0.125
69 1 0.5 7.82054e-10 0.125
70 1 0.625 7.82054e-10 0.125
71 1 0.75 7.82054e-10 0.125
72 1 0.875 7.82054e-10 0.125
73 1 1 0.125 0.125
74 1 0.125 0.125 0.125
75 1 0.25 0.125 0.125
76 1 0.375 0.125 0.125
77 1 0.5 0.125 0.125
78 1 0.625 0.125 0.125
79 1 0.75 0.125 0.125
80 1 0.875 0.125 0.125
81 1 2.62217e-11 0.25 0.125
82 1 0.125 0.25 0.125
83 1 0.25 0.25 0.125
84 1 0.375 0.25 0.125
85 1 0.5 0.25 0.125
86 1 0.625 0.25 0.125
87 1 0.75 0.25 0.125
88 1 0.875 0.25 0.125
89 1 1.4535e-10 0.375 0.125
90 1 0.125 0.375 0.125
91 1 0.25 0.375 0.125
92 1 0.375 0.375 0.125
93 1 0.5 0.375 0.125
94 1 0.625 0.375 0.125
95 1 0.75 0.375 0.125
96 1 0.875 0.375 0.125
97 1 1 0.5 0.125
98 1 0.125 0.5 0.125
99 1 0.25 0.5 0.125
100 1 0.375 0.5 0.125
101 1 0.5 0.5 0.125
102 1 0.625 0.5 0.125
103 1 0.75 0.5 0.125
104 1 0.875 0.5 0.125
105 1 1 0.625 0.125
106 1 0.125 0.625 0.125
107 1 0.25 0.625 0.125
108 1 0.375 0.625 0.125
109 1 0.5 0.625 0.125
110 1 0.625 0.625 0.125
111 1 0.75 0.625 0.125
112 1 0.875 0.625 0.125
113 1 1 0.75 0.125
114 1 0.125 0.75 0.125
115 1 0.25 0.75 0.125
116 1 0.375 0.75 0.125
117 1 0.5 0.75 0.125
118 1 0.625 0.75 0.125
119 1 0.75 0.75 0.125
120 1 0.875 0.75 0.125
121 1 1.66157e-10 0.875 0.125
122 1 0.125 0.875 0.125
123 1 0.25 0.875 0.125
124 1 0.375 0.875 0.125
125 1 0.5 0.875 0.125
126 1 0.625 0.875 0.125
127 1 0.75 0.875 0.125
128 1 0.875 0.875 0.125
129 1 1 3.34601e-10 0.25
130 1 0.125 3.34601e-10 0.25
131 1 0.25 3.34601e-10 0.25
132 1 0.375 3.34601e-10 0.25
133 1 0.5 3.34601e-10 0.25
134 1 0.625 3.34601e-10 0.25
135 1 0.75 3.34601e-10 0.25
136 1 0.875 3.34601e-10 0.25
137 1 1 0.125 0.25
138 1 0.125 0.125 0.25
139 1 0.25 0.125 0.25
140 1 0.375 0.125 0.25
141 1 0.5 0.125 0.25
142 1 0.625 0.125 0.25
143 1 0.75 0.125 0.25
144 1 0.875 0.125 0.25
145 1 1.55668e-10 0.25 0.25
146 1 0.125 0.25 0.25
147 1 0.25 0.25 0.25
148 1 0.375 0.25 0.25
149 1 0.5 0.25 0.25
150 1 0.625 0.25 0.25
151 1 0.75 0.25 0.25
152 1 0.875 0.25 0.25
153 1 1 0.375 0.25
154 1 0.125 0.375 0.25
155 1 0.25 0.375 0.25
156 1 0.375 0.375 0.25
157 1 0.5 0.375 0.25
158 1 0.625 0.375 0.25
159 1 0.75 0.375 0.25
160 1 0.875 0.375 0.25
161 1 1 0.5 0.25
162 1 0.125 0.5 0.25
163 1 0.25 0.5 0.25
164 1 0.375 0.5 0.25
165 1 0.5 0.5 0.25
166 1 0.625 0.5 0.25
167 1 0.75 0.5 0.25
168 1 0.875 0.5 0.25
169 1 1 0.625 0.25
170 1 0.125 0.625 0.25
171 1 0.25 0.625 0.25
172 1 0.375 0.625 0.25
173 1 0.5 0.625 0.25
174 1 0.625 0.625 0.25
175 1 0.75 0.625 0.25
176 1 0.875 0.625 0.25
177 1 1 0.75 0.25
178 1 0.125 0.75 0.25
179 1 0.25 0.75 0.25
180 1 0.375 0.75 0.25
181 1 0.5 0.75 0.25
182 1 0.625 0.75 0.25
183 1 0.75 0.75 0.25
184 1 0.875 0.75 0.25
185 1 3.2905e-11 0.875 0.25
186 1 0.125 0.875 0.25
187 1 0.25 0.875 0.25
188 1 0.375 0.875 0.25
189 1 0.5 0.875 0.25
190 1 0.625 0.875 0.25
191 1 0.75 0.875 0.25
192 1 0.875 0.875 0.25
193 1 1 5.96461e-10 0.375
194 1 0.125 5.96461e-10 0.375
195 1 0.25 5.96461e-10 0.375
196 1 0.375 5.96461e-10 0.375
197 1 0.5 5.96461e-10 0.375
198 1 0.625 5.96461e-10 0.375
199 1 0.75 5.96461e-10 0.375
200 1 0.875 5.96461e-10 0.375
201 1 8.98049e-11 0.125 0.375
202 1 0.125 0.125 0.375
203 1 0.25 0.125 0.375
204 1 0.375 0.125 0.375
205 1 0.5 0.125 0.375
206 1 0.625 0.125 0.375
207 1 0.75 0.125 0.375
208 1 0.875 0.125 0.375
209 1 1 0.25 0.375
210 1 0.125 0.25 0.375
211 1 0.25 0.25 0.375
212 1 0.375 0.25 0.375
213 1 0.5 0.25 0.375
214 1 0.625 0.25 0.375
215 1 0.75 0.25 0.375
216 1 0.875 0.25 0.375
217 1 1 0.375 0.375
218 1 0.125 0.375 0.375
219 1 0.25 0.375 0.375
220 1 0.375 0.375 0.375
221 1 0.5 0.375 0.375
222 1 0.625 0.375 0.375
223 1 0.75 0.375 0.375
224 1 0.875 0.375 0.375
225 1 1 0.5 0.375
226 1 0.125 0.5 0.375
227 1 0.25 0.5 0.375
228 1 0.375 0.5 0.375
229 1 0.5 0.5 0.375
230 1 0.625 0.5 0.375
231 1 0.75 0.5 0.375
232 1 0.875 0.5 0.375
233 1 1.10613e-10 0.625 0.375
234 1 0.125 0.625 0.375
235 1 0.25 0.625 0.375
236 1 0.375 0.625 0.375
237 1 0.5 0.625 0.375
238 1 0.625 0.625 0.375
239 1 0.75 0.625 0.375
240 1 0.875 0.625 0.375
241 1 1 0.75 0.375
242 1 0.125 0.75 0.375
243 1 0.25 0.75 0.375
244 1 0.375 0.75 0.375
245 1 0.5 0.75 0.375
246 1 0.625 0.75 0.375
247 1 0.75 0.75 0.375
248 1 0.875 0.75 0.375
249 1 3.46267e-10 0.875 0.375
250 1 0.125 0.875 0.375
251 1 0.25 0.875 0.375
252 1 0.375 0.875 0.375
253 1 0.5 0.875 0.375
254 1 0.625 0.875 0.375
255 1 0.75 0.875 0.375
256 1 0.875 0.875 0.375
257 1 2.84039e-10 3.32924e-10 0.5
258 1 0.125 3.32924e-10 0.5
259 1 0.25 3.32924e-10 0.5
260 1 0.375 3.32924e-10 0.5
261 1 0.5 3.32924e-10 0.5
262 1 0.625 3.32924e-10 0.5
263 1 0.75 3.32924e-10 0.5
264 1 0.875 3.32924e-10 0.5
265 1 1 0.125 0.5
266 1 0.125 0.125 0.5
267 1 0.25 0.125 0.5
268 1 0.375 0.125 0.5
269 1 0.5 0.125 0.5
270 1 0.625 0.125 0.5
271 1 0.75 0.125 0.5
272 1 0.875 0.125 0.5
273 1 1 0.25 0.5
274 1 0.125 0.25 0.5
275 1 0.25 0.25 0.5
276 1 0.375 0.25 0.5
277 1 0.5 0.25 0.5
278 1 0.625 0.25 0.5
279 1 0.75 0.25 0.5
280 1 0.875 0.25 0.5
281 1 1 0.375 0.5
282 1 0.125 0.375 0.5
283 1 0.25 0.375 0.5
284 1 0.375 0.375 0.5
285 1 0.5 0.375 0.5
286 1 0.625 0.375 0.5
287 1 0.75 0.375 0.5
288 1 0.875 0.375 0.5
289 1 4.475e-11 0.5 0.5
290 1 0.125 0.5 0.5
291 1 0.25 0.5 0.5
292 1 0.375 0.5 0.5
293 1 0.5 0.5 0.5
294 1 0.625 0.5 0.5
295 1 0.75 0.5 0.5
296 1 0.875 0.5 0.5
297 1 1 0.625 0.5
298 1 0.125 0.625 0.5
299 1 0.25 0.625 0.5
300 1 0.375 0.625 0.5
301 1 0.5 0.625 0.5
302 1 0.625 0.625 0.5
303 1 0.75 0.625 0.5
304 1 0.875 0.625 0.5
305 1 2.80405e-10 0.75 0.5
306 1 0.125 0.75 0.5
307 1 0.25 0.75 0.5
308 1 0.375 0.75 0.5
309 1 0.5 0.75 0.5
310 1 0.625 0.75 0.5
311 1 0.75 0.75 0.5
312 1 0.875 0.75 0.5
313 1 3.96931e-10 0.875 0.5
314 1 0.125 0.875 0.5
315 1 0.25 0.875 0.5
316 1 0.375 0.875 0.5
317 1 0.5 0.875 0.5
318 1 0.625 0.875 0.5
319 1 0.75 0.875 0.5
320 1 0.875 0.875 0.5
321 1 1 9.31062e-10 0.625
322 1 0.125 9.31062e-10 0.625
323 1 0.25 9.31062e-10 0.625
324 1 0.375 9.31062e-10 0.625
325 1 0.5 9.31062e-10 0.625
326 1 0.625 9.31062e-10 0.625
327 1 0.75 9.31062e-10 0.625
328 1 0.875 9.31062e-10 0.625
329 1 1 0.125 0.625
330 1 0.125 0.125 0.625
331 1 0.25 0.125 0.625
332 1 0.375 0.125 0.625
333 1 0.5 0.125 0.625
334 1 0.625 0.125 0.625
335 1 0.75 0.125 0.625
336 1 0.875 0.125 0.625
337 1 1 0.25 0.625
338 1 0.125 0.25 0.625
339 1 0.25 0.25 0.625
340 1 0.375 0.25 0.625
341 1 0.5 0.25 0.625
342 1 0.625 0.25 0.625
343 1 0.75 0.25 0.625
344 1 0.875 0.25 0.625
345 1 1 0.375 0.625
346 1 0.125 0.375 0.625
347 1 0.25 0.375 0.625
348 1 0.375 0.375 0.625
349 1 0.5 0.375 0.625
350 1 0.625 0.375 0.625
351 1 0.75 0.375 0.625
352 1 0.875 0.375 0.625
353 1 1 0.5 0.625
354 1 0.125 0.5 0.625
355 1 0.25 0.5 0.625
356 1 0.375 0.5 0.625
357 1 0.5 0.5 0.625
358 1 0.625 0.5 0.625
359 1 0.75 0.5 0.625
360 1 0.875 0.5 0.625
361 1 3.06256e-11 0.625 0.625
362 1 0.125 0.625 0.625
363 1 0.25 0.625 0.625
364 1 0.375 0.625 0.625
365 1 0.5 0.625 0.625
366 1 0.625 0.625 0.625
367 1 0.75 0.625 0.625
368 1 0.875 0.625 0.625
369 1 1.47153e-10 0.75 0.625
370 1 0.125 0.75 0.625
371 1 0.25 0.75 0.625
372 1 0.375 0.75 0.625
373 1 0.5 0.75 0.625
374 1 0.625 0.75 0.625
375 1 0.75 0.75 0.625
376 1 0.875 0.75 0.625
377 1 7.58759e-11 0.875 0.625
378 1 0.125 0.875 0.625
379 1 0.25 0.875 0.625
380 1 0.375 0.875 0.625
381 1 0.5 0.875 0.625
382 1 0.625 0.875 0.625
383 1 0.75 0.875 0.625
384 1 0.875 0.875 0.625
385 1 1 6.67526e-10 0.75
386 1 0.125 6.67526e-10 0.75
387 1 0.25 6.67526e-10 0.75
388 1 0.375 6.67526e-10 0.75
389 1 0.5 6.67526e-10 0.75
390 1 0.625 6.67526e-10 0.75
391 1 0.75 6.67526e-10 0.75
392 1 0.875 6.67526e-10 0.75
393 1 1 0.125 0.75
394 1 0.125 0.125 0.75
395 1 0.25 0.125 0.75
396 1 0.375 0.125 0.75
397 1 0.5 0.125 0.75
398 1 0.625 0.125 0.75
399 1 0.75 0.125 0.75
400 1 0.875 0.125 0.75
401 1 1 0.25 0.75
402 1 0.125 0.25 0.75
403 1 0.25 0.25 0.75
404 1 0.375 0.25 0.75
405 1 0.5 0.25 0.75
406 1 0.625 0.25 0.75
407 1 0.75 0.25 0.75
408 1 0.875 0.25 0.75
409 1 1 0.375 0.75
410 1 0.125 0.375 0.75
411 1 0.25 0.375 0.75
412 1 0.375 0.375 0.75
413 1 0.5 0.375 0.75
414 1 0.625 0.375 0.75
415 1 0.75 0.375 0.75
416 1 0.875 0.375 0.75
417 1 2.2486e-10 0.5 0.75
418 1 0.125 0.5 0.75
419 1 0.25 0.5 0.75
420 1 0.375 0.5 0.75
421 1 0.5 0.5 0.75
422 1 0.625 0.5 0.75
423 1 0.75 0.5 0.75
424 1 0.875 0.5 0.75
425 1 8.12897e-11 0.625 0.75
426 1 0.125 0.625 0.75
427 1 0.25 0.625 0.75
428 1 0.375 0.625 0.75
429 1 0.5 0.625 0.75
430 1 0.625 0.625 0.75
431 1 0.75 0.625 0.75
432 1 0.875 0.625 0.75
433 1 1.00132e-11 0.75 0.75
434 1 0.125 0.75 0.75
435 1 0.25 0.75 0.75
436 1 0.375 0.75 0.75
437 1 0.5 0.75 0.75
438 1 0.625 0.75 0.75
439 1 0.75 0.75 0.75
440 1 0.875 0.75 0.75
441 1 1.2654e-10 0.875 0.75
442 1 0.125 0.875 0.75
443 1 0.25 0.875 0.75
444 1 0.375 0.875 0.75
445 1 0.5 0.875 0.75
446 1 0.625 0.875 0.75
447 1 0.75 0.875 0.75
448 1 0.875 0.875 0.75
449 1 1 9.29385e-10 0.875
450 1 0.125 9.29385e-10 0.875
451 1 0.25 9.29385e-10 0.875
452 1 0.375 9.29385e-10 0.875
453 1 0.5 9.29385e-10 0.875
454 1 0.625 9.29385e-10 0.875
455 1 0.75 9.29385e-10 0.875
456 1 0.875 9.29385e-10 0.875
457 1 1 0.125 0.875
458 1 0.125 0.125 0.875
459 1 0.25 0.125 0.875
460 1 0.375 0.125 0.875
461 1 0.5 0.125 0.875
462 1 0.625 0.125 0.875
463 1 0.75 0.125 0.875
464 1 0.875 0.125 0.875
465 1 3.98696e-11 0.25 0.875
466 1 0.125 0.25 0.875
467 1 0.25 0.25 0.875
468 1 0.375 0.25 0.875
469 1 0.5 0.25 0.875
470 1 0.625 0.25 0.875
471 1 0.75 0.25 0.875
472 1 0.875 0.25 0.875
473 1 1.58998e-10 0.375 0.875
474 1 0.125 0.375 0.875
475 1 0.25 0.375 0.875
476 1 0.375 0.375 0.875
477 1 0.5 0.375 0.875
478 1 0.625 0.375 0.875
479 1 0.75 0.375 0.875
480 1 0.875 0.375 0.875
481 1 1.54271e-11 0.5 0.875
482 1 0.125 0.5 0.875
483 1 0.25 0.5 0.875
484 1 0.375 0.5 0.875
485 1 0.5 0.5 0.875
486 1 0.625 0.5 0.875
487 1 0.75 0.5 0.875
488 1 0.875 0.5 0.875
489 1 1 0.625 0.875
490 1 0.125 0.625 0.875
491 1 0.25 0.625 0.875
492 1 0.375 0.625 0.875
493 1 0.5 0.625 0.875
494 1 0.625 0.625 0.875
495 1 0.75 0.625 0.875
496 1 0.875 0.625 0.875
497 1 6.06771e-11 0.75 0.875
498 1 0.125 0.75 0.875
499 1 0.25 0.75 0.875
500 1 0.375 0.75 0.875
501 1 0.5 0.75 0.875
502 1 0.625 0.75 0.875
503 1 0.75 0.75 0.875
504 1 0.875 0.75 0.875
505 1 1.79805e-10 0.875 0.875
506 1 0.125 0.875 0.875
507 1 0.25 0.875 0.875
508 1 0.375 0.875 0.875
509 1 0.5 0.875 0.875
510 1 0.625 0.875 0.875
511 1 0.75 0.875 0.875
512 1 0.875 0.875 0.875
ITEM: TIMESTEP
50000
ITEM: NUMBER OF ATOMS
512
ITEM: BOX BOUNDS xy xz yz pp pp pp
-2.8798169551723873e-02 4.4481360518629188e+01 1.1127539669538789e+01
-2.4939946418539805e-02 2.5673012157347010e+01 1.1127539669538789e+01
-2.3513606972224821e-02 1.8147682586972241e+01 6.4244880209284272e+00
ITEM: ATOMS id type xs ys zs
1 1 0.00801355 0.00053828 -0.00379881
2 1 0.139423 -0.0061165 -0.00180805
3 1 0.256281 -0.00598538 0.00183349
4 1 0.373344 -0.00317798 0.0029826
5 1 0.497968 0.00586437 0.00276979
6 1 0.624629 0.00331472 -0.000307237
7 1 0.746118 -0.0080886 0.0080099
8 1 0.874241 -0.00015721 -0.00262405
9 1 1.0039 0.120998 -0.000706547
10 1 0.130306 0.126452 -0.00450587
11 1 0.252581 0.126575 -0.00458831
12 1 0.376127 0.129879 -0.00213664
13 1 0.498335 0.134685 -0.00431693
14 1 0.63023 0.122032 -0.00260276
15 1 0.752524 0.129862 -0.00776983
16 1 0.875649 0.1292 -0.00926388
17 1 1.00167 0.243406 0.00289538
18 1 0.124208 0.251558 0.00482341
19 1 0.255417 0.244143 0.00492397
20 1 0.379807 0.255779 -0.0109802
21 1 0.501495 0.24607 -0.000708931
22 1 0.629243 0.248893 -0.00440402
23 1 0.746186 0.255568 -0.00444807
24 1 0.868561 0.256844 -0.00269778
25 1 -0.00423659 0.376964 0.00359158
26 1 0.122312 0.37704 0.0028268
27 1 0.247279 0.380403 0.00173957
28 1 0.37358 0.374177 -0.00278833
29 1 0.496757 0.37254 -0.0015545
30 1 0.622604 0.36856 0.00185176
31 1 0.747109 0.383432 -0.00319465
32 1 0.877925 0.371986 -0.00361461
33 1 -0.00292268 0.501235 0.0063748
34 1 0.130877 0.50367 -0.00182663
35 1 0.250667 0.503361 -0.000916939
36 1 0.367731 0.496528 0.00220824
37 1 0.494709 0.499751 -0.00384757
38 1 0.629218 0.500491 -0.00385206
39 1 0.752007 0.499696 -0.00610848
40 1 0.874495 0.500903 0.004372
41 1 1.00393 0.623089 0.000955345
42 1 0.13213 0.622442 -6.16204e-05
43 1 0.249482 0.626172 0.00191492
44 1 0.373713 0.624768 0.0011865
45 1 0.499725 0.623668 -0.00482137
46 1 0.628432 0.62299 0.000510345
47 1 0.758637 0.62448 -0.00500636
48 1 0.870598 0.627605 0.00570251
49 1 1.00908 0.752948 -0.0113479
50 1 0.123689 0.751501 0.00581934
51 1 0.253131 0.749491 -0.00129101
52 1 0.383068 0.74464 0.00105421
53 1 0.5065 0.740934 0.000832322
54 1 0.632239 0.744489 -0.00208568
55 1 0.747865 0.747529 0.0038846
56 1 0.881677 0.744533 -0.00365603
57 1 0.994093 0.877953 -4.84968e-05
58 1 0.127525 0.879426 -0.00159495
59 1 0.256521 0.871447 -0.00167475
60 1 0.380368 0.868035 0.00116939
61 1 0.502124 0.867652 0.00200052
62 1 0.623232 0.873727 0.00335331
63 1 0.752 0.871437 0.000900936
64 1 0.875098 0.869613 0.00460121
65 1 1.00817 9.86147e-06 0.12249
66 1 0.124336 0.00405111 0.125259
67 1 0.254199 0.00164431 0.120875
68 1 0.372418 0.00533653 0.11908
69 1 0.494977 0.0043241 0.12735
70 1 0.617729 0.00285768 0.128077
71 1 0.748402 0.0109638 0.113412
72 1 0.887471 0.00102899 0.121029
73 1 1.00322 0.122778 0.127148
74 1 0.131121 0.124928 0.125297
75 1 0.25309 0.12137 0.12937
76 1 0.373916 0.128846 0.126248
77 1 0.502116 0.131642 0.127153
78 1 0.623588 0.129497 0.122924
79 1 0.74984 0.127808 0.122962
80 1 0.882507 0.127531 0.11684
81 1 0.00494815 0.242628 0.128935
82 1 0.129331 0.251354 0.125307
83 1 0.24983 0.256591 0.123059
84 1 0.373553 0.247151 0.126621
85 1 0.508084 0.254071 0.116667
86 1 0.627513 0.244102 0.130335
87 1 0.753639 0.248418 0.124196
88 1 0.877937 0.246498 0.127657
89 1 -0.000365092 0.372167 0.122782
90 1 0.116996 0.382319 0.1179
91 1 0.242068 0.379443 0.131922
92 1 0.372262 0.373086 0.128533
93 1 0.486277 0.373835 0.130069
94 1 0.621096 0.36329 0.128549
95 1 0.753526 0.368087 0.119323
96 1 0.873955 0.370237 0.129652
97 1 1.00634 0.500294 0.122005
98 1 0.120796 0.500393 0.124714
99 1 0.252331 0.499385 0.124712
100 1 0.376717 0.499864 0.12218
101 1 0.50291 0.498003 0.120389
102 1 0.632258 0.494546 0.120897
103 1 0.744547 0.494938 0.128894
104 1 0.874387 0.495724 0.130876
105 1 1.00051 0.621367 0.129863
106 1 0.132146 0.622653 0.124622
107 1 0.249567 0.623701 0.130278
108 1 0.374449 0.622061 0.124902
109 1 0.508243 0.619076 0.119292
110 1 0.624073 0.619382 0.127018
111 1 0.748188 0.617401 0.128943
112 1 0.875905 0.621875 0.130018
113 1 0.997011 0.743191 0.123228
114 1 0.124638 0.74728 0.126019
115 1 0.248459 0.752567 0.122425
116 1 0.380278 0.746791 0.12402
117 1 0.502763 0.742918 0.131089
118 1 0.627643 0.747652 0.122498
119 1 0.752008 0.744274 0.125043
120 1 0.873422 0.743776 0.128684
121 1 0.00498132 0.869033 0.116897
122 1 0.122389 0.868776 0.126749
123 1 0.256131 0.876683 0.121074
124 1 0.379704 0.873002 0.12437
125 1 0.499066 0.870182 0.130241
126 1 0.626454 0.877899 0.119305
127 1 0.751691 0.872008 0.121881
128 1 0.870903 0.880565 0.121022
129 1 1.00423 -0.0029879 0.251766
130 1 0.1282 0.00334651 0.243058
131 1 0.250202 -0.00124702 0.253032
132 1 0.374855 0.000946034 0.244728
133 1 0.498991 0.0067933 0.245936
134 1 0.631751 0.00314515 0.23923
135 1 0.7541 -0.00418632 0.252501
136 1 0.887652 -0.000702124 0.245527
137 1 1.00063 0.122506 0.249508
138 1 0.122498 0.12797 0.24737
139 1 0.245897 0.126594 0.252712
140 1 0.375369 0.132266 0.247042
141 1 0.497573 0.129741 0.254469
142 1 0.624674 0.118885 0.253694
143 1 0.754464 0.115693 0.248536
144 1 0.875092 0.12365 0.249654
145 1 1.75964e-06 0.246014 0.253519
146 1 0.119779 0.255008 0.246286
147 1 0.252529 0.247243 0.249779
148 1 0.371894 0.250828 0.253463
149 1 0.498029 0.248206 0.253937
150 1 0.623967 0.240273 0.259085
151 1 0.752024 0.239378 0.250307
152 1 0.878345 0.242328 0.25121
153 1 0.991026 0.380757 0.251418
154 1 0.123748 0.36968 0.245513
155 1 0.245056 0.379117 0.249411
156 1 0.368617 0.373159 0.258309
157 1 0.491201 0.377104 0.246912
158 1 0.624455 0.372795 0.242869
159 1 0.751309 0.36329 0.250246
160 1 0.871481 0.36849 0.255552
161 1 0.997299 0.496054 0.258131
162 1 0.120543 0.499659 0.247943
163 1 0.245821 0.502406 0.254176
164 1 0.373926 0.500199 0.248903
165 1 0.497038 0.500526 0.241038
166 1 0.621482 0.491393 0.256627
167 1 0.749452 0.492426 0.253128
168 1 0.869018 0.505416 0.255458
169 1 0.994059 0.620693 0.255016
170 1 0.12144 0.623408 0.254253
171 1 0.247058 0.625908 0.255639
172 1 0.368981 0.63186 0.245751
173 1 0.497297 0.618797 0.247913
174 1 0.624573 0.619152 0.252817
175 1 0.750243 0.627048 0.252044
176 1 0.873665 0.620612 0.258587
177 1 0.999975 0.743433 0.248897
178 1 0.12689 0.745211 0.252775
179 1 0.246235 0.755756 0.251289
180 1 0.381036 0.74973 0.249298
181 1 0.505188 0.743266 0.258016
182 1 0.625748 0.747179 0.249174
183 1 0.751515 0.747176 0.245418
184 1 0.870346 0.751755 0.250088
185 1 0.00190902 0.874384 0.240507
186 1 0.124026 0.872866 0.246762
187 1 0.252211 0.880915 0.243271
188 1 0.368201 0.878725 0.254858
189 1 0.505192 0.874816 0.243321
190 1 0.623023 0.873771 0.253102
191 1 0.74831 0.870216 0.252594
192 1 0.868055 0.877158 0.248182
193 1 1.00404 -0.000815763 0.371036
194 1 0.127566 0.00497891 0.370249
195 1 0.254835 -0.000886703 0.369312
196 1 0.374414 0.0016408 0.373491
197 1 0.501537 0.00176839 0.369196
198 1 0.62513 -0.0045763 0.373396
199 1 0.748943 -0.00722553 0.375521
200 1 0.867616 0.00304273 0.378249
201 1 0.00294952 0.124499 0.373953
202 1 0.124781 0.125824 0.377096
203 1 0.256204 0.12606 0.374138
204 1 0.375317 0.120787 0.377637
205 1 0.505385 0.123124 0.375698
206 1 0.627551 0.118889 0.384023
207 1 0.746797 0.125362 0.377148
208 1 0.874844 0.120468 0.380588
209 1 0.992856 0.259285 0.375328
210 1 0.128841 0.249459 0.372247
211 1 0.252279 0.248832 0.372722
212 1 0.374573 0.242047 0.380162
213 1 0.497167 0.253386 0.37192
214 1 0.625281 0.250926 0.371216
215 1 0.749283 0.248391 0.374044
216 1 0.873767 0.244691 0.379
217 1 0.997644 0.372379 0.37521
218 1 0.122708 0.372028 0.374637
219 1 0.243794 0.373123 0.378958
220 1 0.37174 0.373936 0.377272
221 1 0.490743 0.37949 0.371976
222 1 0.619212 0.373 0.373066
223 1 0.744739 0.373893 0.376434
224 1 0.867237 0.377673 0.372419
225 1 0.99152 0.497548 0.380992
226 1 0.116566 0.49786 0.37898
227 1 0.245473 0.499534 0.37363
228 1 0.369398 0.503274 0.371037
229 1 0.497865 0.495911 0.369633
230 1 0.628232 0.504649 0.371596
231 1 0.742959 0.503266 0.378884
232 1 0.87117 0.492574 0.388774
233 1 -0.00689206 0.627436 0.374062
234 1 0.114983 0.625464 0.376507
235 1 0.240752 0.626932 0.37685
236 1 0.375692 0.623386 0.374004
237 1 0.495595 0.634637 0.373349
238 1 0.619521 0.63002 0.375422
239 1 0.750363 0.621947 0.376612
240 1 0.872955 0.624709 0.377923
241 1 1.00125 0.750107 0.373874
242 1 0.126448 0.752205 0.376227
243 1 0.255183 0.747874 0.369617
244 1 0.371763 0.756459 0.370117
245 1 0.505749 0.758123 0.374792
246 1 0.625588 0.754421 0.375631
247 1 0.751069 0.746881 0.376131
248 1 0.8781 0.75686 0.368985
249 1 0.000161339 0.878889 0.373587
250 1 0.127399 0.874381 0.371071
251 1 0.250295 0.869297 0.373293
252 1 0.373208 0.878674 0.373189
253 1 0.502537 0.877437 0.373814
254 1 0.620194 0.880208 0.374304
255 1 0.743827 0.873282 0.381419
256 1 0.880355 0.876295 0.367982
257 1 0.00638308 0.00128969 0.496312
258 1 0.134719 0.000675833 0.492311
259 1 0.247771 0.00228221 0.499228
260 1 0.37663 -0.0016787 0.496899
261 1 0.498705 0.00124877 0.492473
262 1 0.614762 0.00111265 0.503973
263 1 0.743722 0.00552848 0.502797
264 1 0.880728 -0.002199 0.496118
265 1 0.994536 0.122963 0.501687
266 1 0.129057 0.125257 0.493075
267 1 0.243654 0.131385 0.499494
268 1 0.38107 0.125136 0.494863
269 1 0.502921 0.120701 0.500031
270 1 0.619008 0.133872 0.503104
271 1 0.746131 0.123438 0.505018
272 1 0.877819 0.12256 0.500001
273 1 0.998711 0.244458 0.502743
274 1 0.117344 0.252649 0.501983
275 1 0.248464 0.262171 0.504181
276 1 0.376382 0.243535 0.501061
277 1 0.494191 0.255042 0.499866
278 1 0.623328 0.253568 0.499775
279 1 0.751468 0.242494 0.503537
280 1 0.871032 0.250071 0.501726
281 1 0.989001 0.375261 0.505106
282 1 0.118951 0.372794 0.502644
283 1 0.243412 0.384213 0.497644
284 1 0.367302 0.378395 0.499376
285 1 0.496944 0.371381 0.497715
286 1 0.61951 0.380316 0.496731
287 1 0.750326 0.375615 0.493581
288 1 0.86841 0.373346 0.506325
289 1 0.000147984 0.505793 0.497686
290 1 0.120704 0.497202 0.500508
291 1 0.25138 0.505347 0.502337
292 1 0.376128 0.501409 0.496185
293 1 0.497033 0.505032 0.494756
294 1 0.617104 0.49894 0.505326
295 1 0.752702 0.500824 0.499417
296 1 0.870524 0.499845 0.505613
297 1 0.997201 0.629539 0.500821
298 1 0.126368 0.624217 0.493907
299 1 0.246002 0.629274 0.49782
300 1 0.368387 0.629751 0.494056
301 1 0.498661 0.624544 0.501108
302 1 0.620718 0.629865 0.499897
303 1 0.746198 0.62465 0.497504
304 1 0.878105 0.624979 0.494937
305 1 0.00413976 0.755044 0.497258
306 1 0.130316 0.75825 0.497295
307 1 0.254342 0.749445 0.50035
308 1 0.375508 0.745313 0.500765
309 1 0.500625 0.749372 0.505977
310 1 0.62242 0.753561 0.499386
311 1 0.748814 0.751918 0.498586
312 1 0.87531 0.749381 0.502236
313 1 -0.00157253 0.879607 0.497909
314 1 0.128182 0.880091 0.492716
315 1 0.253507 0.86507 0.50071
316 1 0.370829 0.872484 0.499725
317 1 0.503543 0.876827 0.499687
318 1 0.623701 0.878561 0.499185
319 1 0.739905 0.881418 0.504102
320 1 0.872734 0.880462 0.495444
321 1 1.00649 -0.00330124 0.625365
322 1 0.129324 -0.00408497 0.627174
323 1 0.25869 -0.00384064 0.629893
324 1 0.374989 -0.0024327 0.626491
325 1 0.493265 0.000939997 0.629961
326 1 0.621527 0.00296986 0.631293
327 1 0.748923 0.00195829 0.628689
328 1 0.874099 0.00533756 0.62124
329 1 1.01005 0.120721 0.622774
330 1 0.131008 0.12261 0.619423
331 1 0.247028 0.12719 0.627575
332 1 0.375705 0.125204 0.626238
333 1 0.496995 0.131979 0.622533
334 1 0.626348 0.123559 0.62971
335 1 0.747445 0.125429 0.630083
336 1 0.881277 0.125201 0.621927
337 1 0.997064 0.251489 0.626294
338 1 0.126805 0.248577 0.625586
339 1 0.250272 0.255446 0.626657
340 1 0.371706 0.25067 0.626574
341 1 0.493132 0.252036 0.631553
342 1 0.620414 0.256612 0.618902
343 1 0.749581 0.250849 0.620647
344 1 0.877488 0.252425 0.625306
345 1 1.00043 0.375452 0.626167
346 1 0.122429 0.374895 0.63168
347 1 0.250467 0.376006 0.631696
348 1 0.370259 0.384984 0.622132
349 1 0.49869 0.379768 0.61929
350 1 0.628084 0.376328 0.616308
351 1 0.752178 0.375205 0.623434
352 1 0.869542 0.376524 0.631333
353 1 0.998207 0.501444 0.623657
354 1 0.130712 0.497728 0.62304
355 1 0.248463 0.508449 0.629408
356 1 0.374722 0.506654 0.617072
357 1 0.499484 0.4932 0.633764
358 1 0.622791 0.501421 0.627786
359 1 0.748673 0.502741 0.622781
360 1 0.869205 0.504868 0.625359
361 1 -0.00058035 0.623615 0.62293
362 1 0.122284 0.627095 0.618851
363 1 0.249092 0.626369 0.627388
364 1 0.37147 0.626382 0.62748
365 1 0.500786 0.622931 0.621891
366 1 0.621219 0.627372 0.618477
367 1 0.744457 0.634001 0.615458
368 1 0.871087 0.625426 0.622286
369 1 -0.00253677 0.750558 0.626012
370 1 0.127424 0.745365 0.629673
371 1 0.251077 0.749081 0.625369
372 1 0.37742 0.747329 0.626672
373 1 0.50049 0.741474 0.636331
374 1 0.618079 0.756973 0.618353
375 1 0.743814 0.755874 0.622786
376 1 0.878336 0.748048 0.619975
377 1 0.00142783 0.877845 0.622125
378 1 0.130285 0.875435 0.628224
379 1 0.252952 0.879709 0.624027
380 1 0.388525 0.863796 0.618278
381 1 0.497342 0.870828 0.628982
382 1 0.623161 0.88064 0.633531
383 1 0.753726 0.871025 0.62801
384 1 0.871695 0.87352 0.623901
385 1 1.00427 -5.54197e-06 0.755803
386 1 0.134632 -0.00386848 0.747799
387 1 0.253598 0.00322245 0.744999
388 1 0.369923 0.000215792 0.755235
389 1 0.498253 0.00540879 0.753024
390 1 0.620358 0.00092524 0.756258
391 1 0.755299 0.0026101 0.755277
392 1 0.882581 -0.00320485 0.748907
393 1 1.00682 0.123196 0.748517
394 1 0.125047 0.122913 0.748445
395 1 0.254538 0.128375 0.746907
396 1 0.37641 0.127909 0.7492
397 1 0.496692 0.129373 0.75141
398 1 0.625667 0.12142 0.756172
399 1 0.752779 0.127516 0.7553
400 1 0.878445 0.127313 0.748824
401 1 1.00775 0.249034 0.749816
402 1 0.1325 0.241595 0.751948
403 1 0.248555 0.248004 0.759139
404 1 0.377079 0.250551 0.751691
405 1 0.50697 0.250726 0.748902
406 1 0.63245 0.253796 0.742969
407 1 0.754121 0.252889 0.746682
408 1 0.880028 0.247848 0.754837
409 1 1.00285 0.375147 0.750168
410 1 0.13293 0.367145 0.753074
411 1 0.244996 0.376554 0.757128
412 1 0.368721 0.379638 0.744682
413 1 0.499782 0.371892 0.748821
414 1 0.630035 0.37443 0.74296
415 1 0.746647 0.375218 0.756135
416 1 0.88115 0.375462 0.745973
417 1 0.00223374 0.497962 0.746232
418 1 0.123175 0.503797 0.752677
419 1 0.253781 0.497606 0.75354
420 1 0.380506 0.493819 0.751066
421 1 0.504969 0.496695 0.748901
422 1 0.63387 0.502331 0.746315
423 1 0.749966 0.50608 0.746085
424 1 0.877456 0.499528 0.75107
425 1 -0.00192532 0.624464 0.754159
426 1 0.127122 0.620446 0.750105
427 1 0.254339 0.625593 0.747111
428 1 0.38118 0.623217 0.749196
429 1 0.501013 0.62085 0.750833
430 1 0.627085 0.625446 0.747148
431 1 0.749231 0.62787 0.744173
432 1 0.879429 0.623303 0.744391
433 1 -0.00231666 0.752656 0.753923
434 1 0.123265 0.748366 0.7534
435 1 0.24813 0.754498 0.747937
436 1 0.367349 0.746401 0.755392
437 1 0.498429 0.749615 0.756457
438 1 0.627346 0.753151 0.751227
439 1 0.75385 0.750329 0.743911
440 1 0.873212 0.751088 0.749813
441 1 0.005 0.875192 0.749323
442 1 0.126341 0.875817 0.753214
443 1 0.251459 0.873539 0.750982
444 1 0.372997 0.871069 0.756187
445 1 0.502334 0.872 0.754075
446 1 0.627153 0.876607 0.748102
447 1 0.752038 0.883999 0.748074
448 1 0.881624 0.882093 0.740686
449 1 0.999587 0.00315452 0.877842
450 1 0.130679 0.00190932 0.870931
451 1 0.252738 -0.0051923 0.879482
452 1 0.380662 -0.00480679 0.872289
453 1 0.49986 0.000432084 0.879759
454 1 0.628809 -0.00393275 0.881654
455 1 0.748629 4.5294e-05 0.881695
456 1 0.869555 -0.00114098 0.881935
457 1 1.00327 0.126481 0.872186
458 1 0.130859 0.115116 0.880482
459 1 0.25547 0.120582 0.873123
460 1 0.374488 0.121382 0.877875
461 1 0.495777 0.128208 0.87473
462 1 0.624069 0.1263 0.87047
463 1 0.746434 0.12686 0.879145
464 1 0.873381 0.12801 0.868988
465 1 0.00384957 0.246531 0.875478
466 1 0.126014 0.245539 0.883327
467 1 0.246788 0.255383 0.878011
468 1 0.37759 0.259496 0.865205
469 1 0.502067 0.249116 0.871104
470 1 0.62405 0.251907 0.869067
471 1 0.737341 0.258853 0.873751
472 1 0.870357 0.252823 0.875155
473 1 0.000598325 0.377209 0.868418
474 1 0.11777 0.376147 0.879792
475 1 0.239759 0.374119 0.882025
476 1 0.373257 0.378651 0.869894
477 1 0.497682 0.378779 0.872192
478 1 0.626698 0.379046 0.872083
479 1 0.753337 0.379449 0.868396
480 1 0.875987 0.380957 0.870603
481 1 0.00208816 0.494124 0.883494
482 1 0.123337 0.500024 0.88352
483 1 0.246392 0.503039 0.875884
484 1 0.371257 0.503036 0.870694
485 1 0.489818 0.496988 0.880835
486 1 0.623284 0.496639 0.879084
487 1 0.7555 0.501691 0.872078
488 1 0.87979 0.506013 0.870913
489 1 0.998615 0.619694 0.883648
490 1 0.123548 0.623615 0.877211
491 1 0.249418 0.626156 0.875428
492 1 0.372746 0.623926 0.878027
493 1 0.499194 0.616484 0.873676
494 1 0.620666 0.628678 0.878434
495 1 0.759927 0.62702 0.865331
496 1 0.877744 0.626864 0.872673
497 1 0.0047921 0.746929 0.872413
498 1 0.119362 0.756845 0.87625
499 1 0.234897 0.7462 0.886812
500 1 0.374546 0.747172 0.878847
501 1 0.502821 0.749029 0.876505
502 1 0.62536 0.754541 0.876201
503 1 0.754913 0.750941 0.870288
504 1 0.877759 0.747409 0.875501
505 1 -0.00210425 0.877146 0.879104
506 1 0.123227 0.875345 0.883777
507 1 0.253048 0.873064 0.877431
508 1 0.380989 0.868853 0.879141