ITEM: TIMESTEP
0
ITEM: NUMBER OF ATOMS
512
ITEM: BOX BOUNDS xy xz yz pp pp pp
0.0000000000000000e+00 4.3878081289999997e+01 1.0969520320000001e+01
0.0000000000000000e+00 2.5333022050000000e+01 1.0969520320000001e+01
0.0000000000000000e+00 1.7913151670000001e+01 6.3332555099999999e+00
ITEM: ATOMS id type xs ys zs
1 1 0 0 0
2 1 0.125 0 0
3 1 0.25 0 0
4 1 0.375 0 0
5 1 0.5 0 0
6 1 0.625 0 0
7 1 0.75 0 0
8 1 0.875 0 0
9 1 1 0.125 0
10 1 0.125 0.125 0
11 1 0.25 0.125 0
12 1 0.375 0.125 0
13 1 0.5 0.125 0
14 1 0.625 0.125 0
15 1 0.75 0.125 0
16 1 0.875 0.125 0
17 1 1 0.25 0
18 1 0.125 0.25 0
19 1 0.25 0.25 0
20 1 0.375 0.25 0
21 1 0.5 0.25 0
22 1 0.625 0.25 0
23 1 0.75 0.25 0
24 1 0.875 0.25 0
25 1 1 0.375 0
26 1 0.125 0.375 0
27 1 0.25 0.375 0
28 1 0.375 0.375 0
29 1 0.5 0.375 0
30 1 0.625 0.375 0
31 1 0.75 0.375 0
32 1 0.875 0.375 0
33 1 3.45281e-10 0.5 0
34 1 0.125 0.5 0
35 1 0.25 0.5 0
36 1 0.375 0.5 0
37 1 0.5 0.5 0
38 1 0.625 0.5 0
39 1 0.75 0.5 0
40 1 0.875 0.5 0
41 1 1 0.625 0
42 1 0.125 0.625 0
43 1 0.25 0.625 0
44 1 0.375 0.625 0
45 1 0.5 0.625 0
46 1 0.625 0.625 0
47 1 0.75 0.625 0
48 1 0.875 0.625 0
49 1 1 0.75 0
50 1 0.125 0.75 0
51 1 0.25 0.75 0
52 1 0.375 0.75 0
53 1 0.5 0.75 0
54 1 0.625 0.75 0
55 1 0.75 0.75 0
56 1 0.875 0.75 0
57 1 1.29488e-10 0.875 0
58 1 0.125 0.875 0
59 1 0.25 0.875 0
60 1 0.375 0.875 0
61 1 0.5 0.875 0
62 1 0.625 0.875 0
63 1 0.75 0.875 0
64 1 0.875 0.875 0
65 1 1 4.58324e-10 0.125
66 1 0.125 4.58324e-10 0.125
67 1 0.25 4.58324e-10 0.125
68 1 0.375 4.58324e-10 0.125
69 1 0.5 4.58324e-10 0.125
70 1 0.625 4.58324e-10 0.125
71 1 0.75 4.58324e-10 0.125
72 1 0.875 4.58324e-10 0.125
73 1 1 0.125 0.125
74 1 0.125 0.125 0.125
75 1 0.25 0.125 0.125
76 1 0.375 0.125 0.125
77 1 0.5 0.125 0.125
78 1 0.625 0.125 0.125
79 1 0.75 0.125 0.125
80 1 0.875 0.125 0.125
81 1 1 0.25 0.125
82 1 0.125 0.25 0.125
83 1 0.25 0.25 0.125
84 1 0.375 0.25 0.125
85 1 0.5 0.25 0.125
86 1 0.625 0.25 0.125
87 1 0.75 0.25 0.125
88 1 0.875 0.25 0.125
89 1 2.41756e-10 0.375 0.125
90 1 0.125 0.375 0.125
91 1 0.25 0.375 0.125
92 1 0.375 0.375 0.125
93 1 0.5 0.375 0.125
94 1 0.625 0.375 0.125
95 1 0.75 0.375 0.125
96 1 0.875 0.375 0.125
97 1 1 0.5 0.125
98 1 0.125 0.5 0.125
99 1 0.25 0.5 0.125
100 1 0.375 0.5 0.125
101 1 0.5 0.5 0.125
102 1 0.625 0.5 0.125
103 1 0.75 0.5 0.125
104 1 0.875 0.5 0.125
105 1 1 0.625 0.125
106 1 0.125 0.625 0.125
107 1 0.25 0.625 0.125
108 1 0.375 0.625 0.125
109 1 0.5 0.625 0.125
110 1 0.625 0.625 0.125
111 1 0.75 0.625 0.125
112 1 0.875 0.625 0.125
113 1 2.59642e-11 0.75 0.125
114 1 0.125 0.75 0.125
115 1 0.25 0.75 0.125
116 1 0.375 0.75 0.125
117 1 0.5 0.75 0.125
118 1 0.625 0.75 0.125
119 1 0.75 0.75 0.125
120 1 0.875 0.75 0.125
121 1 3.9439e-10 0.875 0.125
122 1 0.125 0.875 0.125
123 1 0.25 0.875 0.125
124 1 0.375 0.875 0.125
125 1 0.5 0.875 0.125
126 1 0.625 0.875 0.125
127 1 0.75 0.875 0.125
128 1 0.875 0.875 0.125
129 1 1 1.9898e-10 0.25
130 1 0.125 1.9898e-10 0.25
131 1 0.25 1.9898e-10 0.25
132 1 0.375 1.9898e-10 0.25
133 1 0.5 1.9898e-10 0.25
134 1 0.625 1.9898e-10 0.25
135 1 0.75 1.9898e-10 0.25
136 1 0.875 1.9898e-10 0.25
137 1 1 0.125 0.25
138 1 0.125 0.125 0.25
139 1 0.25 0.125 0.25
140 1 0.375 0.125 0.25
141 1 0.5 0.125 0.25
142 1 0.625 0.125 0.25
143 1 0.75 0.125 0.25
144 1 0.875 0.125 0.25
145 1 2.1531e-10 0.25 0.25
146 1 0.125 0.25 0.25
147 1 0.25 0.25 0.25
148 1 0.375 0.25 0.25
149 1 0.5 0.25 0.25
150 1 0.625 0.25 0.25
151 1 0.75 0.25 0.25
152 1 0.875 0.25 0.25
153 1 1 0.375 0.25
154 1 0.125 0.375 0.25
155 1 0.25 0.375 0.25
156 1 0.375 0.375 0.25
157 1 0.5 0.375 0.25
158 1 0.625 0.375 0.25
159 1 0.75 0.375 0.25
160 1 0.875 0.375 0.25
161 1 1 0.5 0.25
162 1 0.125 0.5 0.25
163 1 0.25 0.5 0.25
164 1 0.375 0.5 0.25
165 1 0.5 0.5 0.25
166 1 0.625 0.5 0.25
167 1 0.75 0.5 0.25
168 1 0.875 0.5 0.25
169 1 1 0.625 0.25
170 1 0.125 0.625 0.25
171 1 0.25 0.625 0.25
172 1 0.375 0.625 0.25
173 1 0.5 0.625 0.25
174 1 0.625 0.625 0.25
175 1 0.75 0.625 0.25
176 1 0.875 0.625 0.25
177 1 1 0.75 0.25
178 1 0.125 0.75 0.25
179 1 0.25 0.75 0.25
180 1 0.375 0.75 0.25
181 1 0.5 0.75 0.25
182 1 0.625 0.75 0.25
183 1 0.75 0.75 0.25
184 1 0.875 0.75 0.25
185 1 1 0.875 0.25
186 1 0.125 0.875 0.25
187 1 0.25 0.875 0.25
188 1 0.375 0.875 0.25
189 1 0.5 0.875 0.25
190 1 0.625 0.875 0.25
191 1 0.75 0.875 0.25
192 1 0.875 0.875 0.25
193 1 1 3.17066e-10 0.375
194 1 0.125 3.17066e-10 0.375
195 1 0.25 3.17066e-10 0.375
196 1 0.375 3.17066e-10 0.375
197 1 0.5 3.17066e-10 0.375
198 1 0.625 3.17066e-10 0.375
199 1 0.75 3.17066e-10 0.375
200 1 0.875 3.17066e-10 0.375
201 1 3.47073e-11 0.125 0.375
202 1 0.125 0.125 0.375
203 1 0.25 0.125 0.375
204 1 0.375 0.125 0.375
205 1 0.5 0.125 0.375
206 1 0.625 0.125 0.375
207 1 0.75 0.125 0.375
208 1 0.875 0.125 0.375
209 1 1 0.25 0.375
210 1 0.125 0.25 0.375
211 1 0.25 0.25 0.375
212 1 0.375 0.25 0.375
213 1 0.5 0.25 0.375
214 1 0.625 0.25 0.375
215 1 0.75 0.25 0.375
216 1 0.875 0.25 0.375
217 1 1 0.375 0.375
218 1 0.125 0.375 0.375
219 1 0.25 0.375 0.375
220 1 0.375 0.375 0.375
221 1 0.5 0.375 0.375
222 1 0.625 0.375 0.375
223 1 0.75 0.375 0.375
224 1 0.875 0.375 0.375
225 1 8.20762e-11 0.5 0.375
226 1 0.125 0.5 0.375
227 1 0.25 0.5 0.375
228 1 0.375 0.5 0.375
229 1 0.5 0.5 0.375
230 1 0.625 0.5 0.375
231 1 0.75 0.5 0.375
232 1 0.875 0.5 0.375
233 1 1.87341e-10 0.625 0.375
234 1 0.125 0.625 0.375
235 1 0.25 0.625 0.375
236 1 0.375 0.625 0.375
237 1 0.5 0.625 0.375
238 1 0.625 0.625 0.375
239 1 0.75 0.625 0.375
240 1 0.875 0.625 0.375
241 1 2.68122e-11 0.75 0.375
242 1 0.125 0.75 0.375
243 1 0.25 0.75 0.375
244 1 0.375 0.75 0.375
245 1 0.5 0.75 0.375
246 1 0.625 0.75 0.375
247 1 0.75 0.75 0.375
248 1 0.875 0.75 0.375
249 1 1.32077e-10 0.875 0.375
250 1 0.125 0.875 0.375
251 1 0.25 0.875 0.375
252 1 0.375 0.875 0.375
253 1 0.5 0.875 0.375
254 1 0.625 0.875 0.375
255 1 0.75 0.875 0.375
256 1 0.875 0.875 0.375
257 1 1.94344e-10 2.43805e-10 0.5
258 1 0.125 2.43805e-10 0.5
259 1 0.25 2.43805e-10 0.5
260 1 0.375 2.43805e-10 0.5
261 1 0.5 2.43805e-10 0.5
262 1 0.625 2.43805e-10 0.5
263 1 0.75 2.43805e-10 0.5
264 1 0.875 2.43805e-10 0.5
265 1 1 0.125 0.5
266 1 0.125 0.125 0.5
267 1 0.25 0.125 0.5
268 1 0.375 0.125 0.5
269 1 0.5 0.125 0.5
270 1 0.625 0.125 0.5
271 1 0.75 0.125 0.5
272 1 0.875 0.125 0.5
273 1 1 0.25 0.5
274 1 0.125 0.25 0.5
275 1 0.25 0.25 0.5
276 1 0.375 0.25 0.5
277 1 0.5 0.25 0.5
278 1 0.625 0.25 0.5
279 1 0.75 0.25 0.5
280 1 0.875 0.25 0.5
281 1 1 0.375 0.5
282 1 0.125 0.375 0.5
283 1 0.25 0.375 0.5
284 1 0.375 0.375 0.5
285 1 0.5 0.375 0.5
286 1 0.625 0.375 0.5
287 1 0.75 0.375 0.5
288 1 0.875 0.375 0.5
289 1 8.38162e-11 0.5 0.5
290 1 0.125 0.5 0.5
291 1 0.25 0.5 0.5
292 1 0.375 0.5 0.5
293 1 0.5 0.5 0.5
294 1 0.625 0.5 0.5
295 1 0.75 0.5 0.5
296 1 0.875 0.5 0.5
297 1 1 0.625 0.5
298 1 0.125 0.625 0.5
299 1 0.25 0.625 0.5
300 1 0.375 0.625 0.5
301 1 0.5 0.625 0.5
302 1 0.625 0.625 0.5
303 1 0.75 0.625 0.5
304 1 0.875 0.625 0.5
305 1 2.91713e-10 0.75 0.5
306 1 0.125 0.75 0.5
307 1 0.25 0.75 0.5
308 1 0.375 0.75 0.5
309 1 0.5 0.75 0.5
310 1 0.625 0.75 0.5
311 1 0.75 0.75 0.5
312 1 0.875 0.75 0.5
313 1 1 0.875 0.5
314 1 0.125 0.875 0.5
315 1 0.25 0.875 0.5
316 1 0.375 0.875 0.5
317 1 0.5 0.875 0.5
318 1 0.625 0.875 0.5
319 1 0.75 0.875 0.5
320 1 0.875 0.875 0.5
321 1 1 5.16046e-10 0.625
322 1 0.125 5.16046e-10 0.625
323 1 0.25 5.16046e-10 0.625
324 1 0.375 5.16046e-10 0.625
325 1 0.5 5.16046e-10 0.625
326 1 0.625 5.16046e-10 0.625
327 1 0.75 5.16046e-10 0.625
328 1 0.875 5.16046e-10 0.625
329 1 1 0.125 0.625
330 1 0.125 0.125 0.625
331 1 0.25 0.125 0.625
332 1 0.375 0.125 0.625
333 1 0.5 0.125 0.625
334 1 0.625 0.125 0.625
335 1 0.75 0.125 0.625
336 1 0.875 0.125 0.625
337 1 1 0.25 0.625
338 1 0.125 0.25 0.625
339 1 0.25 0.25 0.625
340 1 0.375 0.25 0.625
341 1 0.5 0.25 0.625
342 1 0.625 0.25 0.625
343 1 0.75 0.25 0.625
344 1 0.875 0.25 0.625
345 1 1 0.375 0.625
346 1 0.125 0.375 0.625
347 1 0.25 0.375 0.625
348 1 0.375 0.375 0.625
349 1 0.5 0.375 0.625
350 1 0.625 0.375 0.625
351 1 0.75 0.375 0.625
352 1 0.875 0.375 0.625
353 1 1 0.5 0.625
354 1 0.125 0.5 0.625
355 1 0.25 0.5 0.625
356 1 0.375 0.5 0.625
357 1 0.5 0.5 0.625
358 1 0.625 0.5 0.625
359 1 0.75 0.5 0.625
360 1 0.875 0.5 0.625
361 1 1 0.625 0.625
362 1 0.125 0.625 0.625
363 1 0.25 0.625 0.625
364 1 0.375 0.625 0.625
365 1 0.5 0.625 0.625
366 1 0.625 0.625 0.625
367 1 0.75 0.625 0.625
368 1 0.875 0.625 0.625
369 1 1 0.75 0.625
370 1 0.125 0.75 0.625
371 1 0.25 0.75 0.625
372 1 0.375 0.75 0.625
373 1 0.5 0.75 0.625
374 1 0.625 0.75 0.625
375 1 0.75 0.75 0.625
376 1 0.875 0.75 0.625
377 1 1 0.875 0.625
378 1 0.125 0.875 0.625
379 1 0.25 0.875 0.625
380 1 0.375 0.875 0.625
381 1 0.5 0.875 0.625
382 1 0.625 0.875 0.625
383 1 0.75 0.875 0.625
384 1 0.875 0.875 0.625
385 1 1 6.28868e-10 0.75
386 1 0.125 6.28868e-10 0.75
387 1 0.25 6.28868e-10 0.75
388 1 0.375 6.28868e-10 0.75
389 1 0.5 6.28868e-10 0.75
390 1 0.625 6.28868e-10 0.75
391 1 0.75 6.28868e-10 0.75
392 1 0.875 6.28868e-10 0.75
393 1 3.4664e-11 0.125 0.75
394 1 0.125 0.125 0.75
395 1 0.25 0.125 0.75
396 1 0.375 0.125 0.75
397 1 0.5 0.125 0.75
398 1 0.625 0.125 0.75
399 1 0.75 0.125 0.75
400 1 0.875 0.125 0.75
401 1 1.39928e-10 0.25 0.75
402 1 0.125 0.25 0.75
403 1 0.25 0.25 0.75
404 1 0.375 0.25 0.75
405 1 0.5 0.25 0.75
406 1 0.625 0.25 0.75
407 1 0.75 0.25 0.75
408 1 0.875 0.25 0.75
409 1 1 0.375 0.75
410 1 0.125 0.375 0.75
411 1 0.25 0.375 0.75
412 1 0.375 0.375 0.75
413 1 0.5 0.375 0.75
414 1 0.625 0.375 0.75
415 1 0.75 0.375 0.75
416 1 0.875 0.375 0.75
417 1 8.46644e-11 0.5 0.75
418 1 0.125 0.5 0.75
419 1 0.25 0.5 0.75
420 1 0.375 0.5 0.75
421 1 0.5 0.5 0.75
422 1 0.625 0.5 0.75
423 1 0.75 0.5 0.75
424 1 0.875 0.5 0.75
425 1 1 0.625 0.75
426 1 0.125 0.625 0.75
427 1 0.25 0.625 0.75
428 1 0.375 0.625 0.75
429 1 0.5 0.625 0.75
430 1 0.625 0.625 0.75
431 1 0.75 0.625 0.75
432 1 0.875 0.625 0.75
433 1 2.94004e-11 0.75 0.75
434 1 0.125 0.75 0.75
435 1 0.25 0.75 0.75
436 1 0.375 0.75 0.75
437 1 0.5 0.75 0.75
438 1 0.625 0.75 0.75
439 1 0.75 0.75 0.75
440 1 0.875 0.75 0.75
441 1 1 0.875 0.75
442 1 0.125 0.875 0.75
443 1 0.25 0.875 0.75
444 1 0.375 0.875 0.75
445 1 0.5 0.875 0.75
446 1 0.625 0.875 0.75
447 1 0.75 0.875 0.75
448 1 0.875 0.875 0.75
449 1 1 5.60871e-10 0.875
450 1 0.125 5.60871e-10 0.875
451 1 0.25 5.60871e-10 0.875
452 1 0.375 5.60871e-10 0.875
453 1 0.5 5.60871e-10 0.875
454 1 0.625 5.60871e-10 0.875
455 1 0.75 5.60871e-10 0.875
456 1 0.875 5.60871e-10 0.875
457 1 3.64038e-11 0.125 0.875
458 1 0.125 0.125 0.875
459 1 0.25 0.125 0.875
460 1 0.375 0.125 0.875
461 1 0.5 0.125 0.875
462 1 0.625 0.125 0.875
463 1 0.75 0.125 0.875
464 1 0.875 0.125 0.875
465 1 1 0.25 0.875
466 1 0.125 0.25 0.875
467 1 0.25 0.25 0.875
468 1 0.375 0.25 0.875
469 1 0.5 0.25 0.875
470 1 0.625 0.25 0.875
471 1 0.75 0.25 0.875
472 1 0.875 0.25 0.875
473 1 1 0.375 0.875
474 1 0.125 0.375 0.875
475 1 0.25 0.375 0.875
476 1 0.375 0.375 0.875
477 1 0.5 0.375 0.875
478 1 0.625 0.375 0.875
479 1 0.75 0.375 0.875
480 1 0.875 0.375 0.875
481 1 1 0.5 0.875
482 1 0.125 0.5 0.875
483 1 0.25 0.5 0.875
484 1 0.375 0.5 0.875
485 1 0.5 0.5 0.875
486 1 0.625 0.5 0.875
487 1 0.75 0.5 0.875
488 1 0.875 0.5 0.875
489 1 1.89037e-10 0.625 0.875
490 1 0.125 0.625 0.875
491 1 0.25 0.625 0.875
492 1 0.375 0.625 0.875
493 1 0.5 0.625 0.875
494 1 0.625 0.625 0.875
495 1 0.75 0.625 0.875
496 1 0.875 0.625 0.875
497 1 1 0.75 0.875
498 1 0.125 0.75 0.875
499 1 0.25 0.75 0.875
500 1 0.375 0.75 0.875
501 1 0.5 0.75 0.875
502 1 0.625 0.75 0.875
503 1 0.75 0.75 0.875
504 1 0.875 0.75 0.875
505 1 3.26421e-10 0.875 0.875
506 1 0.125 0.875 0.875
507 1 0.25 0.875 0.875
508 1 0.375 0.875 0.875
509 1 0.5 0.875 0.875
510 1 0.625 0.875 0.875
511 1 0.75 0.875 0.875
512 1 0.875 0.875 0.875
ITEM: TIMESTEP
50000
ITEM: NUMBER OF ATOMS
512
ITEM: BOX BOUNDS xy xz yz pp pp pp
-8.1879358641559818e-02 4.4123719365850349e+01 1.1051399678604401e+01
-7.0909604638421442e-02 2.5451204724372261e+01 1.1051399678604401e+01
-6.6854216343555706e-02 1.7980005886343974e+01 6.3805285797341558e+00
ITEM: ATOMS id type xs ys zs
1 1 0.00343831 0.0140562 -0.00746263
2 1 0.127561 0.00745949 -0.0105456
3 1 0.251366 -0.00358142 -0.00382382
4 1 0.374974 -0.00202507 0.000365729
5 1 0.501374 0.000425453 -0.0026751
6 1 0.619245 0.00228766 0.000418148
7 1 0.74478 -0.00416772 0.00627611
8 1 0.881291 -0.000659023 -0.00312868
9 1 1.00098 0.127209 0.00440978
10 1 0.126399 0.12856 0.000319394
11 1 0.252129 0.119337 0.00511802
12 1 0.378207 0.118492 0.00474018
13 1 0.492228 0.13365 -0.0015798
14 1 0.622963 0.122237 0.000598076
15 1 0.745277 0.124766 0.00437621
16 1 0.870887 0.133001 0.0020801
17 1 1.00165 0.24719 0.00328239
18 1 0.125513 0.254832 -0.00122237
19 1 0.250732 0.242031 0.0049549
20 1 0.371899 0.255102 -0.00210462
21 1 0.49618 0.258061 -0.0034867
22 1 0.623941 0.256943 -0.00149879
23 1 0.740676 0.257377 0.000135091
24 1 0.87566 0.256062 -0.00401812
25 1 0.995923 0.38217 0.005535
26 1 0.122309 0.37695 0.00493604
27 1 0.245201 0.37748 0.0039192
28 1 0.370659 0.374351 -0.00498003
29 1 0.490275 0.384887 0.00261069
30 1 0.627283 0.383178 -0.00371689
31 1 0.750795 0.373242 7.33562e-05
32 1 0.877912 0.378579 -0.00169692
33 1 -0.00334084 0.501867 0.0021775
34 1 0.119586 0.500147 0.00432611
35 1 0.245405 0.497862 0.00302171
36 1 0.368484 0.5034 0.00244764
37 1 0.498068 0.50812 -0.00202303
38 1 0.62953 0.499441 -0.00326494
39 1 0.753314 0.499458 -0.00671379
40 1 0.873051 0.501681 0.0026771
41 1 0.996731 0.629748 0.000283639
42 1 0.120369 0.62121 0.00888533
43 1 0.246423 0.625 0.00284925
44 1 0.367058 0.625255 -0.0035635
45 1 0.49281 0.624854 0.00584482
46 1 0.62983 0.624882 -0.00780625
47 1 0.751464 0.62398 -0.000679505
48 1 0.869953 0.629765 0.00172791
49 1 0.993377 0.751913 0.00222747
50 1 0.121625 0.746678 -0.000284565
51 1 0.244022 0.756643 -0.00217664
52 1 0.367413 0.74528 0.00671752
53 1 0.500039 0.747002 -0.00135027
54 1 0.627898 0.752936 -0.0021595
55 1 0.750878 0.754761 -0.00596767
56 1 0.870658 0.748457 0.00430328
57 1 -0.00150099 0.873209 0.00383463
58 1 0.127604 0.876891 -0.0026374
59 1 0.256119 0.874487 -0.000149336
60 1 0.37725 0.869073 0.00119723
61 1 0.50703 0.869189 -0.00110461
62 1 0.626752 0.873709 0.00176583
63 1 0.750031 0.875886 0.00163113
64 1 0.87179 0.871894 0.00765731
65 1 1.00258 0.00893999 0.120743
66 1 0.138389 0.00284663 0.120903
67 1 0.259049 -0.00881981 0.122565
68 1 0.370519 -0.00443995 0.128215
69 1 0.501398 -0.0100055 0.130153
70 1 0.621257 0.00779596 0.121049
71 1 0.755957 -0.00545304 0.124171
72 1 0.883841 0.000938087 0.123708
73 1 1.00376 0.122178 0.129021
74 1 0.130501 0.123936 0.122758
75 1 0.246885 0.123416 0.129725
76 1 0.382076 0.115551 0.127079
77 1 0.502248 0.124526 0.122285
78 1 0.623024 0.131455 0.121468
79 1 0.757078 0.122184 0.122783
80 1 0.873766 0.136145 0.125146
81 1 1.00022 0.250208 0.124853
82 1 0.11889 0.255253 0.128691
83 1 0.248877 0.247859 0.126548
84 1 0.372052 0.251946 0.122868
85 1 0.496847 0.250962 0.121108
86 1 0.623641 0.253561 0.120412
87 1 0.750245 0.249566 0.11908
88 1 0.873884 0.254022 0.128923
89 1 -0.00461491 0.374507 0.128557
90 1 0.121961 0.374262 0.126527
91 1 0.24615 0.373337 0.123581
92 1 0.368953 0.37816 0.127804
93 1 0.502479 0.376439 0.12491
94 1 0.629423 0.369827 0.129026
95 1 0.7559 0.367133 0.124745
96 1 0.871573 0.380402 0.125461
97 1 0.994484 0.495121 0.130801
98 1 0.123497 0.498526 0.129083
99 1 0.248316 0.497798 0.129537
100 1 0.376447 0.499827 0.128445
101 1 0.510227 0.496429 0.125322
102 1 0.627473 0.498017 0.124005
103 1 0.744371 0.502035 0.123417
104 1 0.8731 0.500996 0.12234
105 1 0.993441 0.623891 0.13147
106 1 0.126361 0.615586 0.130694
107 1 0.24647 0.626286 0.131032
108 1 0.366907 0.627489 0.127857
109 1 0.503932 0.619664 0.120838
110 1 0.624743 0.6243 0.121254
111 1 0.749922 0.629326 0.127176
112 1 0.880774 0.617304 0.127857
113 1 0.00596885 0.746832 0.121936
114 1 0.126598 0.749152 0.120481
115 1 0.246891 0.750884 0.120344
116 1 0.376754 0.743731 0.130169
117 1 0.497901 0.746587 0.128432
118 1 0.625059 0.746085 0.126373
119 1 0.745164 0.750847 0.129786
120 1 0.875714 0.748864 0.120432
121 1 0.00127112 0.879526 0.117894
122 1 0.129059 0.887965 0.118752
123 1 0.253658 0.863685 0.128399
124 1 0.380097 0.875125 0.121449
125 1 0.499715 0.870969 0.130623
126 1 0.624664 0.87249 0.128629
127 1 0.742832 0.874411 0.139261
128 1 0.876573 0.873818 0.127095
129 1 1.00547 0.00179667 0.249273
130 1 0.133853 0.000463852 0.248245
131 1 0.253786 -0.0074743 0.252003
132 1 0.376426 -0.00612535 0.249528
133 1 0.503078 0.00188462 0.249454
134 1 0.63137 -0.00564462 0.251006
135 1 0.754937 0.00240683 0.241994
136 1 0.878611 -0.00390581 0.248984
137 1 0.997042 0.13122 0.247492
138 1 0.128456 0.124354 0.251874
139 1 0.249874 0.123036 0.248494
140 1 0.373309 0.120908 0.249746
141 1 0.499659 0.124384 0.246928
142 1 0.624614 0.115197 0.243547
143 1 0.74464 0.121729 0.256533
144 1 0.872143 0.124192 0.255676
145 1 0.00167599 0.246731 0.256868
146 1 0.125792 0.245288 0.258791
147 1 0.248141 0.24542 0.25482
148 1 0.374178 0.247333 0.247832
149 1 0.501593 0.245538 0.240172
150 1 0.624938 0.239465 0.248115
151 1 0.74848 0.247654 0.252591
152 1 0.87283 0.251481 0.25485
153 1 0.995496 0.367941 0.254332
154 1 0.123491 0.369563 0.254303
155 1 0.246879 0.380141 0.237221
156 1 0.374932 0.368878 0.249661
157 1 0.504937 0.36167 0.251386
158 1 0.621366 0.36895 0.251397
159 1 0.748813 0.376251 0.242992
160 1 0.869836 0.375782 0.256211
161 1 0.996053 0.498462 0.250503
162 1 0.117568 0.492819 0.258454
163 1 0.254484 0.49612 0.24936
164 1 0.376246 0.503667 0.246787
165 1 0.49265 0.50114 0.249519
166 1 0.619713 0.491503 0.257931
167 1 0.7491 0.498206 0.249422
168 1 0.87508 0.497803 0.253232
169 1 1.00758 0.616304 0.253834
170 1 0.124211 0.627009 0.245266
171 1 0.248716 0.628329 0.250627
172 1 0.374392 0.624428 0.252323
173 1 0.502007 0.621001 0.246009
174 1 0.620722 0.620665 0.25126
175 1 0.747996 0.62127 0.246298
176 1 0.869893 0.621146 0.251773
177 1 1.00432 0.749294 0.249787
178 1 0.124121 0.758527 0.244739
179 1 0.253512 0.748397 0.25066
180 1 0.381095 0.749864 0.250273
181 1 0.50053 0.7459 0.251305
182 1 0.626943 0.746281 0.249222
183 1 0.752156 0.745328 0.250928
184 1 0.890019 0.738261 0.240874
185 1 1.00293 0.880833 0.241899
186 1 0.132807 0.877027 0.246307
187 1 0.252769 0.873236 0.246694
188 1 0.377015 0.867767 0.254187
189 1 0.499116 0.875578 0.253334
190 1 0.623547 0.871234 0.25076
191 1 0.750239 0.87221 0.255859
192 1 0.875249 0.872766 0.246721
193 1 0.994267 0.00653179 0.372796
194 1 0.126752 -0.0037682 0.37062
195 1 0.259256 -0.00681009 0.37309
196 1 0.379254 0.00279934 0.373691
197 1 0.501887 -0.00173961 0.377301
198 1 0.637891 -0.00030734 0.366547
199 1 0.753818 -0.00509564 0.380865
200 1 0.876099 -0.00212454 0.368752
201 1 0.00203137 0.13032 0.373813
202 1 0.125668 0.120803 0.382114
203 1 0.250775 0.123531 0.373398
204 1 0.376528 0.124463 0.37522
205 1 0.501481 0.123216 0.380961
206 1 0.620925 0.126277 0.374077
207 1 0.751844 0.12167 0.378832
208 1 0.875526 0.119531 0.384746
209 1 0.997825 0.247022 0.380474
210 1 0.123862 0.24358 0.386437
211 1 0.25372 0.251136 0.371757
212 1 0.381399 0.244956 0.370355
213 1 0.495993 0.249787 0.37217
214 1 0.619318 0.24155 0.371967
215 1 0.749824 0.246879 0.371901
216 1 0.867324 0.253589 0.377969
217 1 0.999512 0.373347 0.377006
218 1 0.125238 0.368473 0.375821
219 1 0.257208 0.3771 0.369641
220 1 0.375016 0.378562 0.373399
221 1 0.506118 0.367968 0.369123
222 1 0.627861 0.366071 0.374328
223 1 0.745816 0.373367 0.375488
224 1 0.869919 0.376968 0.378043
225 1 -0.00399119 0.493822 0.37635
226 1 0.127182 0.499657 0.369192
227 1 0.246382 0.499041 0.375147
228 1 0.372964 0.503673 0.373605
229 1 0.498729 0.495112 0.378747
230 1 0.622849 0.495684 0.377227
231 1 0.745725 0.500825 0.371349
232 1 0.873254 0.496995 0.375246
233 1 0.000612732 0.625896 0.372383
234 1 0.127368 0.623322 0.371966
235 1 0.255106 0.616777 0.37443
236 1 0.379698 0.622531 0.37125
237 1 0.500085 0.621957 0.373972
238 1 0.620102 0.630969 0.370424
239 1 0.752389 0.620235 0.373402
240 1 0.877082 0.627481 0.36916
241 1 0.00262091 0.752841 0.37283
242 1 0.126665 0.74941 0.37556
243 1 0.248333 0.745657 0.377241
244 1 0.371204 0.748258 0.379652
245 1 0.49968 0.751421 0.375891
246 1 0.632948 0.749324 0.374743
247 1 0.752141 0.748112 0.378072
248 1 0.878307 0.749767 0.372854
249 1 0.00829915 0.876142 0.363549
250 1 0.124827 0.874508 0.372766
251 1 0.247727 0.871232 0.379402
252 1 0.375633 0.871966 0.375107
253 1 0.498506 0.882518 0.369987
254 1 0.62012 0.880135 0.379646
255 1 0.751996 0.868382 0.383822
256 1 0.876695 0.873094 0.371632
257 1 8.64293e-05 -0.00408735 0.495311
258 1 0.121591 -0.00442231 0.497398
259 1 0.24611 -0.000997357 0.50003
260 1 0.372805 0.00390514 0.500685
261 1 0.500399 -0.00198849 0.50343
262 1 0.623618 0.00380288 0.499539
263 1 0.750625 0.000312035 0.502087
264 1 0.872672 -0.00415726 0.505272
265 1 0.9969 0.127559 0.500642
266 1 0.124973 0.120025 0.502844
267 1 0.252171 0.121716 0.497514
268 1 0.372371 0.119949 0.506201
269 1 0.488697 0.129789 0.504357
270 1 0.624212 0.121839 0.503615
271 1 0.746223 0.121618 0.509826
272 1 0.869604 0.126272 0.503089
273 1 0.996347 0.250332 0.51095
274 1 0.129667 0.244291 0.496145
275 1 0.255696 0.248404 0.50031
276 1 0.373603 0.252994 0.49503
277 1 0.497349 0.252225 0.502159
278 1 0.623787 0.251081 0.491799
279 1 0.748648 0.247121 0.498902
280 1 0.876512 0.250804 0.501248
281 1 1.00244 0.377839 0.503044
282 1 0.130597 0.375623 0.49841
283 1 0.25402 0.372947 0.502017
284 1 0.378933 0.379904 0.49406
285 1 0.507428 0.373831 0.49711
286 1 0.625943 0.372728 0.496579
287 1 0.748936 0.375023 0.49712
288 1 0.874076 0.373877 0.504749
289 1 0.00958639 0.497736 0.493372
290 1 0.124186 0.505129 0.494628
291 1 0.246554 0.496547 0.502466
292 1 0.377547 0.500429 0.497411
293 1 0.503004 0.499374 0.501003
294 1 0.622957 0.503834 0.497443
295 1 0.746041 0.504088 0.500637
296 1 0.872378 0.500054 0.502584
297 1 1.00442 0.626071 0.496171
298 1 0.133559 0.628819 0.490566
299 1 0.255447 0.619953 0.499471
300 1 0.374645 0.620701 0.502961
301 1 0.488728 0.627762 0.502259
302 1 0.627343 0.62516 0.495911
303 1 0.756822 0.621547 0.495305
304 1 0.882057 0.620108 0.497956
305 1 -0.00423327 0.755431 0.491824
306 1 0.119357 0.7498 0.501283
307 1 0.253392 0.744095 0.502156
308 1 0.373428 0.75045 0.50191
309 1 0.500817 0.75077 0.502654
310 1 0.628101 0.751825 0.49753
311 1 0.752767 0.745249 0.501302
312 1 0.874423 0.751841 0.497368
313 1 0.996312 0.866075 0.50848
314 1 0.129877 0.868398 0.501981
315 1 0.249924 0.874501 0.502391
316 1 0.378013 0.879735 0.491042
317 1 0.504392 0.879186 0.496798
318 1 0.626291 0.878574 0.499518
319 1 0.75107 0.877158 0.499678
320 1 0.879171 0.872375 0.495884
321 1 1.00398 0.000626248 0.618386
322 1 0.125845 -0.00452019 0.627297
323 1 0.256137 0.00519739 0.616346
324 1 0.371764 0.00228324 0.628782
325 1 0.502751 -0.000252326 0.627184
326 1 0.622978 0.00826366 0.622788
327 1 0.745118 7.60092e-05 0.632164
328 1 0.873843 0.00296245 0.619904
329 1 0.99946 0.126365 0.61715
330 1 0.120628 0.122379 0.628617
331 1 0.248216 0.123784 0.6259
332 1 0.373501 0.127496 0.626873
333 1 0.495608 0.127044 0.627502
334 1 0.621713 0.131388 0.623163
335 1 0.752019 0.12813 0.624251
336 1 0.877239 0.113132 0.632527
337 1 0.995482 0.256348 0.628731
338 1 0.12948 0.255142 0.625664
339 1 0.253965 0.252504 0.624785
340 1 0.373336 0.260259 0.614285
341 1 0.499494 0.249307 0.627386
342 1 0.626033 0.249132 0.621184
343 1 0.743049 0.252898 0.630304
344 1 0.870113 0.243418 0.632533
345 1 1.0064 0.379633 0.62643
346 1 0.126281 0.38506 0.622896
347 1 0.24911 0.371508 0.632453
348 1 0.372501 0.37975 0.619114
349 1 0.501253 0.375472 0.625698
350 1 0.615781 0.385449 0.621051
351 1 0.747014 0.376721 0.622889
352 1 0.873699 0.376739 0.623927
353 1 1.00755 0.507139 0.621
354 1 0.125926 0.508774 0.622237
355 1 0.253327 0.499166 0.623055
356 1 0.374983 0.496351 0.626519
357 1 0.50017 0.5055 0.62503
358 1 0.618515 0.500382 0.623762
359 1 0.748384 0.49899 0.620645
360 1 0.880572 0.497428 0.621532
361 1 0.992784 0.631167 0.622661
362 1 0.124419 0.629616 0.619776
363 1 0.253629 0.621068 0.625788
364 1 0.37587 0.617634 0.631152
365 1 0.50003 0.627443 0.623314
366 1 0.625996 0.62454 0.619313
367 1 0.752025 0.623261 0.625474
368 1 0.871498 0.622725 0.627193
369 1 0.999281 0.748863 0.622294
370 1 0.12942 0.744723 0.632155
371 1 0.253072 0.747123 0.627933
372 1 0.372532 0.750639 0.632625
373 1 0.499452 0.754318 0.621012
374 1 0.630064 0.745903 0.622042
375 1 0.755509 0.747905 0.623105
376 1 0.873543 0.752185 0.624149
377 1 1.00105 0.878217 0.62105
378 1 0.125647 0.866432 0.624748
379 1 0.255969 0.875335 0.624431
380 1 0.378251 0.876006 0.617301
381 1 0.505638 0.870717 0.625801
382 1 0.629863 0.873607 0.6225
383 1 0.752698 0.876839 0.618553
384 1 0.877419 0.86842 0.626977
385 1 0.99687 0.0070761 0.748991
386 1 0.124196 -0.00126793 0.750185
387 1 0.248869 0.000715469 0.745276
388 1 0.373361 -0.00263918 0.749153
389 1 0.498075 0.00673304 0.752786
390 1 0.621778 -0.000969933 0.756476
391 1 0.745345 -0.00151969 0.750555
392 1 0.870735 -0.00201524 0.754135
393 1 0.00167095 0.127677 0.753177
394 1 0.129466 0.127963 0.747316
395 1 0.24757 0.12915 0.747447
396 1 0.374319 0.125842 0.757512
397 1 0.500024 0.125127 0.752121
398 1 0.63525 0.119515 0.744985
399 1 0.748336 0.123964 0.754373
400 1 0.875228 0.123329 0.752087
401 1 -0.0031987 0.253908 0.75026
402 1 0.121982 0.256517 0.747281
403 1 0.243165 0.250114 0.756158
404 1 0.374094 0.257919 0.739751
405 1 0.50109 0.251255 0.751037
406 1 0.626489 0.249052 0.75098
407 1 0.743974 0.248795 0.75653
408 1 0.867295 0.244516 0.755335
409 1 0.996246 0.374966 0.747157
410 1 0.127216 0.376757 0.751631
411 1 0.252573 0.376017 0.753315
412 1 0.374635 0.376596 0.751197
413 1 0.501149 0.380186 0.746118
414 1 0.624223 0.374392 0.747296
415 1 0.754078 0.38044 0.740652
416 1 0.876128 0.36854 0.749342
417 1 0.00303679 0.497092 0.748179
418 1 0.129396 0.497991 0.751995
419 1 0.248366 0.496749 0.75564
420 1 0.377124 0.496815 0.755579
421 1 0.495599 0.504309 0.753246
422 1 0.620906 0.497267 0.749975
423 1 0.751255 0.498021 0.747708
424 1 0.868938 0.504857 0.750825
425 1 1.00036 0.623955 0.752577
426 1 0.126938 0.620842 0.749666
427 1 0.24599 0.622832 0.753329
428 1 0.382327 0.63029 0.745966
429 1 0.500437 0.63209 0.744489
430 1 0.632308 0.621651 0.750134
431 1 0.748749 0.627723 0.752524
432 1 0.878368 0.62801 0.746633
433 1 -0.00267395 0.748663 0.754699
434 1 0.122576 0.746335 0.750693
435 1 0.24635 0.751975 0.751011
436 1 0.372935 0.751165 0.754768
437 1 0.501833 0.755507 0.747857
438 1 0.624114 0.755896 0.750096
439 1 0.756299 0.741874 0.751493
440 1 0.880671 0.746116 0.752014
441 1 0.997457 0.878874 0.74906
442 1 0.126057 0.88181 0.745279
443 1 0.253394 0.878563 0.746164
444 1 0.376809 0.872802 0.747396
445 1 0.503615 0.883051 0.752279
446 1 0.623211 0.878995 0.747458
447 1 0.74876 0.869632 0.747945
448 1 0.87323 0.872667 0.751116
449 1 1.00529 0.00296892 0.875691
450 1 0.12889 0.000692316 0.872244
451 1 0.251093 0.00613157 0.869803
452 1 0.37327 -0.000749299 0.882157
453 1 0.496287 -0.00126102 0.883713
454 1 0.623208 0.000956657 0.877553
455 1 0.749296 -0.00107388 0.877976
456 1 0.868441 -0.00153436 0.884359
457 1 -0.00263335 0.133892 0.874704
458 1 0.127258 0.131132 0.870174
459 1 0.252571 0.125677 0.876097
460 1 0.38098 0.126031 0.872894
461 1 0.499608 0.129687 0.876461
462 1 0.623321 0.125062 0.877154
463 1 0.752925 0.124373 0.872081
464 1 0.883633 0.121247 0.875148
465 1 1.00189 0.246779 0.881346
466 1 0.124936 0.250298 0.882055
467 1 0.249249 0.25142 0.869757
468 1 0.371354 0.250192 0.875509
469 1 0.496589 0.259352 0.872097
470 1 0.616632 0.254877 0.876694
471 1 0.753789 0.247398 0.877867
472 1 0.873037 0.257326 0.872572
473 1 0.999361 0.377003 0.877934
474 1 0.122417 0.380831 0.874944
475 1 0.247002 0.36647 0.883533
476 1 0.367816 0.375741 0.875191
477 1 0.4984 0.380349 0.875136
478 1 0.623274 0.374227 0.871569
479 1 0.749438 0.378933 0.865925
480 1 0.878946 0.376715 0.86917
481 1 0.999697 0.505463 0.869158
482 1 0.123342 0.498749 0.883381
483 1 0.251118 0.497858 0.873196
484 1 0.367173 0.504829 0.881847
485 1 0.503378 0.505788 0.870341
486 1 0.624568 0.502102 0.873415
487 1 0.75679 0.497102 0.871639
488 1 0.876802 0.50314 0.871199
489 1 -0.00212458 0.628041 0.876557
490 1 0.122385 0.627408 0.877997
491 1 0.245115 0.628537 0.875675
492 1 0.37542 0.627946 0.869622
493 1 0.496142 0.62974 0.875537
494 1 0.617501 0.632752 0.879378
495 1 0.752068 0.630404 0.872078
496 1 0.874392 0.625182 0.871238
497 1 0.998769 0.752321 0.873487
498 1 0.120259 0.749813 0.880115
499 1 0.249004 0.752463 0.874877
500 1 0.375037 0.760654 0.871774
501 1 0.498514 0.75651 0.87071
502 1 0.630103 0.751187 0.872261
503 1 0.752942 0.753884 0.872086
504 1 0.873573 0.755169 0.875948
505 1 -0.00350485 0.878497 0.877923
506 1 0.11974 0.873012 0.878156
507 1 0.247264 0.880719 0.873161
508 1 0.368975 0.882424 0.872478
509 1 0.4981 0.875566 0.877239
510 1 0.628118 0.872644 0.875771